 Title= "ADflow Lift Distribution Data"
Variables = "eta" "CoordinateX" "CoordinateY" "CoordinateZ" "Lift" "Drag" "Normalized Lift" "Normalized Drag" "CL" "CD" "CLp" "CDp" "CLv" "CDv" "Ellptical" "thickness" "twist" "chord" 
Zone T= "LiftDist_01 allWalls: : z normal"
 I=          150
 DATAPACKING=BLOCK
  0.000000E+00
  0.671141E-02
  0.134228E-01
  0.201342E-01
  0.268456E-01
  0.335570E-01
  0.402685E-01
  0.469799E-01
  0.536913E-01
  0.604027E-01
  0.671141E-01
  0.738255E-01
  0.805369E-01
  0.872483E-01
  0.939597E-01
  0.100671E+00
  0.107383E+00
  0.114094E+00
  0.120805E+00
  0.127517E+00
  0.134228E+00
  0.140940E+00
  0.147651E+00
  0.154362E+00
  0.161074E+00
  0.167785E+00
  0.174497E+00
  0.181208E+00
  0.187919E+00
  0.194631E+00
  0.201342E+00
  0.208054E+00
  0.214765E+00
  0.221477E+00
  0.228188E+00
  0.234899E+00
  0.241611E+00
  0.248322E+00
  0.255034E+00
  0.261745E+00
  0.268456E+00
  0.275168E+00
  0.281879E+00
  0.288591E+00
  0.295302E+00
  0.302013E+00
  0.308725E+00
  0.315436E+00
  0.322148E+00
  0.328859E+00
  0.335570E+00
  0.342282E+00
  0.348993E+00
  0.355705E+00
  0.362416E+00
  0.369128E+00
  0.375839E+00
  0.382550E+00
  0.389262E+00
  0.395973E+00
  0.402685E+00
  0.409396E+00
  0.416107E+00
  0.422819E+00
  0.429530E+00
  0.436242E+00
  0.442953E+00
  0.449664E+00
  0.456376E+00
  0.463087E+00
  0.469799E+00
  0.476510E+00
  0.483221E+00
  0.489933E+00
  0.496644E+00
  0.503356E+00
  0.510067E+00
  0.516779E+00
  0.523490E+00
  0.530201E+00
  0.536913E+00
  0.543624E+00
  0.550336E+00
  0.557047E+00
  0.563758E+00
  0.570470E+00
  0.577181E+00
  0.583893E+00
  0.590604E+00
  0.597315E+00
  0.604027E+00
  0.610738E+00
  0.617450E+00
  0.624161E+00
  0.630872E+00
  0.637584E+00
  0.644295E+00
  0.651007E+00
  0.657718E+00
  0.664430E+00
  0.671141E+00
  0.677852E+00
  0.684564E+00
  0.691275E+00
  0.697987E+00
  0.704698E+00
  0.711409E+00
  0.718121E+00
  0.724832E+00
  0.731544E+00
  0.738255E+00
  0.744966E+00
  0.751678E+00
  0.758389E+00
  0.765101E+00
  0.771812E+00
  0.778523E+00
  0.785235E+00
  0.791946E+00
  0.798658E+00
  0.805369E+00
  0.812081E+00
  0.818792E+00
  0.825503E+00
  0.832215E+00
  0.838926E+00
  0.845638E+00
  0.852349E+00
  0.859060E+00
  0.865772E+00
  0.872483E+00
  0.879195E+00
  0.885906E+00
  0.892617E+00
  0.899329E+00
  0.906040E+00
  0.912752E+00
  0.919463E+00
  0.926174E+00
  0.932886E+00
  0.939597E+00
  0.946309E+00
  0.953020E+00
  0.959732E+00
  0.966443E+00
  0.973154E+00
  0.979866E+00
  0.986577E+00
  0.993289E+00
  0.100000E+01
  0.000000E+00
  0.000000E+00
  0.000000E+00
  0.000000E+00
  0.000000E+00
  0.000000E+00
  0.000000E+00
  0.000000E+00
  0.000000E+00
  0.000000E+00
  0.000000E+00
  0.000000E+00
  0.000000E+00
  0.000000E+00
  0.000000E+00
  0.000000E+00
  0.000000E+00
  0.000000E+00
  0.000000E+00
  0.000000E+00
  0.000000E+00
  0.000000E+00
  0.000000E+00
  0.000000E+00
  0.000000E+00
  0.000000E+00
  0.000000E+00
  0.000000E+00
  0.000000E+00
  0.000000E+00
  0.000000E+00
  0.000000E+00
  0.000000E+00
  0.000000E+00
  0.000000E+00
  0.000000E+00
  0.000000E+00
  0.000000E+00
  0.000000E+00
  0.000000E+00
  0.000000E+00
  0.000000E+00
  0.000000E+00
  0.000000E+00
  0.000000E+00
  0.000000E+00
  0.000000E+00
  0.000000E+00
  0.000000E+00
  0.000000E+00
  0.000000E+00
  0.000000E+00
  0.000000E+00
  0.000000E+00
  0.000000E+00
  0.000000E+00
  0.000000E+00
  0.000000E+00
  0.000000E+00
  0.000000E+00
  0.000000E+00
  0.000000E+00
  0.000000E+00
  0.000000E+00
  0.000000E+00
  0.000000E+00
  0.000000E+00
  0.000000E+00
  0.000000E+00
  0.000000E+00
  0.000000E+00
  0.000000E+00
  0.000000E+00
  0.000000E+00
  0.000000E+00
  0.000000E+00
  0.000000E+00
  0.000000E+00
  0.000000E+00
  0.000000E+00
  0.000000E+00
  0.000000E+00
  0.000000E+00
  0.000000E+00
  0.000000E+00
  0.000000E+00
  0.000000E+00
  0.000000E+00
  0.000000E+00
  0.000000E+00
  0.000000E+00
  0.000000E+00
  0.000000E+00
  0.000000E+00
  0.000000E+00
  0.000000E+00
  0.000000E+00
  0.000000E+00
  0.000000E+00
  0.000000E+00
  0.000000E+00
  0.000000E+00
  0.000000E+00
  0.000000E+00
  0.000000E+00
  0.000000E+00
  0.000000E+00
  0.000000E+00
  0.000000E+00
  0.000000E+00
  0.000000E+00
  0.000000E+00
  0.000000E+00
  0.000000E+00
  0.000000E+00
  0.000000E+00
  0.000000E+00
  0.000000E+00
  0.000000E+00
  0.000000E+00
  0.000000E+00
  0.000000E+00
  0.000000E+00
  0.000000E+00
  0.000000E+00
  0.000000E+00
  0.000000E+00
  0.000000E+00
  0.000000E+00
  0.000000E+00
  0.000000E+00
  0.000000E+00
  0.000000E+00
  0.000000E+00
  0.000000E+00
  0.000000E+00
  0.000000E+00
  0.000000E+00
  0.000000E+00
  0.000000E+00
  0.000000E+00
  0.000000E+00
  0.000000E+00
  0.000000E+00
  0.000000E+00
  0.000000E+00
  0.000000E+00
  0.000000E+00
  0.000000E+00
  0.000000E+00
  0.000000E+00
  0.000000E+00
  0.000000E+00
  0.000000E+00
  0.000000E+00
  0.000000E+00
  0.000000E+00
  0.000000E+00
  0.000000E+00
  0.000000E+00
  0.000000E+00
  0.000000E+00
  0.000000E+00
  0.000000E+00
  0.000000E+00
  0.000000E+00
  0.000000E+00
  0.000000E+00
  0.000000E+00
  0.000000E+00
  0.000000E+00
  0.000000E+00
  0.000000E+00
  0.000000E+00
  0.000000E+00
  0.000000E+00
  0.000000E+00
  0.000000E+00
  0.000000E+00
  0.000000E+00
  0.000000E+00
  0.000000E+00
  0.000000E+00
  0.000000E+00
  0.000000E+00
  0.000000E+00
  0.000000E+00
  0.000000E+00
  0.000000E+00
  0.000000E+00
  0.000000E+00
  0.000000E+00
  0.000000E+00
  0.000000E+00
  0.000000E+00
  0.000000E+00
  0.000000E+00
  0.000000E+00
  0.000000E+00
  0.000000E+00
  0.000000E+00
  0.000000E+00
  0.000000E+00
  0.000000E+00
  0.000000E+00
  0.000000E+00
  0.000000E+00
  0.000000E+00
  0.000000E+00
  0.000000E+00
  0.000000E+00
  0.000000E+00
  0.000000E+00
  0.000000E+00
  0.000000E+00
  0.000000E+00
  0.000000E+00
  0.000000E+00
  0.000000E+00
  0.000000E+00
  0.000000E+00
  0.000000E+00
  0.000000E+00
  0.000000E+00
  0.000000E+00
  0.000000E+00
  0.000000E+00
  0.000000E+00
  0.000000E+00
  0.000000E+00
  0.000000E+00
  0.000000E+00
  0.000000E+00
  0.000000E+00
  0.000000E+00
  0.000000E+00
  0.000000E+00
  0.000000E+00
  0.000000E+00
  0.000000E+00
  0.000000E+00
  0.000000E+00
  0.000000E+00
  0.000000E+00
  0.000000E+00
  0.000000E+00
  0.000000E+00
  0.000000E+00
  0.000000E+00
  0.000000E+00
  0.000000E+00
  0.000000E+00
  0.000000E+00
  0.000000E+00
  0.000000E+00
  0.000000E+00
  0.000000E+00
  0.000000E+00
  0.000000E+00
  0.000000E+00
  0.000000E+00
  0.000000E+00
  0.000000E+00
  0.000000E+00
  0.000000E+00
  0.000000E+00
  0.000000E+00
  0.000000E+00
  0.000000E+00
  0.000000E+00
  0.000000E+00
  0.000000E+00
  0.000000E+00
  0.000000E+00
  0.000000E+00
  0.000000E+00
  0.000000E+00
  0.000000E+00
  0.000000E+00
  0.000000E+00
  0.000000E+00
  0.000000E+00
  0.000000E+00
  0.000000E+00
  0.000000E+00
  0.000000E+00
  0.000000E+00
  0.000000E+00
  0.000000E+00
  0.000000E+00
  0.000000E+00
  0.000000E+00
  0.000000E+00
  0.000000E+00
  0.000000E+00
  0.000000E+00
  0.000000E+00
  0.000000E+00
  0.000000E+00
  0.000000E+00
  0.508000E+00
  0.538474E+00
  0.568949E+00
  0.599423E+00
  0.629898E+00
  0.660372E+00
  0.690846E+00
  0.721321E+00
  0.751795E+00
  0.782269E+00
  0.812744E+00
  0.843218E+00
  0.873693E+00
  0.904167E+00
  0.934641E+00
  0.965116E+00
  0.995590E+00
  0.102606E+01
  0.105654E+01
  0.108701E+01
  0.111749E+01
  0.114796E+01
  0.117844E+01
  0.120891E+01
  0.123939E+01
  0.126986E+01
  0.130033E+01
  0.133081E+01
  0.136128E+01
  0.139176E+01
  0.142223E+01
  0.145271E+01
  0.148318E+01
  0.151365E+01
  0.154413E+01
  0.157460E+01
  0.160508E+01
  0.163555E+01
  0.166603E+01
  0.169650E+01
  0.172698E+01
  0.175745E+01
  0.178792E+01
  0.181840E+01
  0.184887E+01
  0.187935E+01
  0.190982E+01
  0.194030E+01
  0.197077E+01
  0.200124E+01
  0.203172E+01
  0.206219E+01
  0.209267E+01
  0.212314E+01
  0.215362E+01
  0.218409E+01
  0.221457E+01
  0.224504E+01
  0.227551E+01
  0.230599E+01
  0.233646E+01
  0.236694E+01
  0.239741E+01
  0.242789E+01
  0.245836E+01
  0.248883E+01
  0.251931E+01
  0.254978E+01
  0.258026E+01
  0.261073E+01
  0.264121E+01
  0.267168E+01
  0.270216E+01
  0.273263E+01
  0.276310E+01
  0.279358E+01
  0.282405E+01
  0.285453E+01
  0.288500E+01
  0.291548E+01
  0.294595E+01
  0.297642E+01
  0.300690E+01
  0.303737E+01
  0.306785E+01
  0.309832E+01
  0.312880E+01
  0.315927E+01
  0.318975E+01
  0.322022E+01
  0.325069E+01
  0.328117E+01
  0.331164E+01
  0.334212E+01
  0.337259E+01
  0.340307E+01
  0.343354E+01
  0.346401E+01
  0.349449E+01
  0.352496E+01
  0.355544E+01
  0.358591E+01
  0.361639E+01
  0.364686E+01
  0.367734E+01
  0.370781E+01
  0.373828E+01
  0.376876E+01
  0.379923E+01
  0.382971E+01
  0.386018E+01
  0.389066E+01
  0.392113E+01
  0.395160E+01
  0.398208E+01
  0.401255E+01
  0.404303E+01
  0.407350E+01
  0.410398E+01
  0.413445E+01
  0.416493E+01
  0.419540E+01
  0.422587E+01
  0.425635E+01
  0.428682E+01
  0.431730E+01
  0.434777E+01
  0.437825E+01
  0.440872E+01
  0.443919E+01
  0.446967E+01
  0.450014E+01
  0.453062E+01
  0.456109E+01
  0.459157E+01
  0.462204E+01
  0.465252E+01
  0.468299E+01
  0.471346E+01
  0.474394E+01
  0.477441E+01
  0.480489E+01
  0.483536E+01
  0.486584E+01
  0.489631E+01
  0.492678E+01
  0.495726E+01
  0.498773E+01
  0.501821E+01
  0.504868E+01
 -0.534838E+01
  0.447624E+01
  0.684648E+01
  0.103939E+02
  0.133042E+02
  0.159305E+02
  0.178679E+02
  0.196875E+02
  0.203326E+02
  0.221785E+02
  0.231803E+02
  0.232893E+02
  0.228288E+02
  0.207877E+02
  0.214548E+02
  0.242700E+02
  0.290337E+02
  0.342085E+02
  0.388152E+02
  0.429638E+02
  0.461666E+02
  0.495567E+02
  0.529419E+02
  0.565243E+02
  0.606135E+02
  0.622816E+02
  0.681930E+02
  0.679160E+02
  0.679704E+02
  0.690251E+02
  0.700403E+02
  0.708497E+02
  0.714173E+02
  0.718211E+02
  0.724182E+02
  0.729518E+02
  0.735664E+02
  0.737664E+02
  0.739183E+02
  0.741607E+02
  0.743365E+02
  0.743635E+02
  0.741574E+02
  0.738008E+02
  0.732785E+02
  0.725949E+02
  0.718050E+02
  0.709109E+02
  0.698223E+02
  0.686320E+02
  0.672534E+02
  0.657929E+02
  0.642443E+02
  0.625929E+02
  0.607655E+02
  0.587382E+02
  0.567070E+02
  0.547213E+02
  0.527378E+02
  0.507229E+02
  0.486729E+02
  0.465677E+02
  0.446116E+02
  0.426813E+02
  0.407607E+02
  0.389133E+02
  0.370266E+02
  0.351574E+02
  0.333676E+02
  0.316231E+02
  0.299069E+02
  0.282567E+02
  0.267761E+02
  0.253614E+02
  0.240226E+02
  0.226394E+02
  0.213054E+02
  0.202022E+02
  0.192304E+02
  0.183641E+02
  0.177074E+02
  0.172016E+02
  0.168569E+02
  0.167937E+02
  0.169204E+02
  0.172735E+02
  0.179330E+02
  0.187819E+02
  0.198735E+02
  0.212578E+02
  0.227605E+02
  0.244045E+02
  0.263129E+02
  0.283139E+02
  0.304007E+02
  0.326434E+02
  0.349139E+02
  0.371836E+02
  0.394972E+02
  0.417481E+02
  0.439296E+02
  0.460876E+02
  0.481669E+02
  0.501515E+02
  0.520312E+02
  0.536313E+02
  0.551758E+02
  0.566269E+02
  0.579204E+02
  0.590826E+02
  0.600858E+02
  0.609762E+02
  0.617649E+02
  0.624202E+02
  0.629742E+02
  0.633912E+02
  0.637329E+02
  0.639792E+02
  0.641358E+02
  0.642082E+02
  0.642084E+02
  0.641492E+02
  0.640156E+02
  0.638171E+02
  0.635671E+02
  0.632666E+02
  0.629055E+02
  0.624962E+02
  0.620017E+02
  0.614479E+02
  0.608271E+02
  0.600873E+02
  0.592549E+02
  0.583100E+02
  0.572400E+02
  0.559957E+02
  0.546009E+02
  0.530376E+02
  0.512903E+02
  0.493079E+02
  0.470391E+02
  0.445046E+02
  0.415343E+02
  0.380873E+02
  0.339574E+02
  0.287055E+02
  0.217260E+02
  0.103250E+02
 -0.138387E+02
 -0.576855E-04
  0.502330E+02
  0.107316E+02
  0.175956E+02
  0.189124E+02
  0.207089E+02
  0.251991E+02
  0.272321E+02
  0.296129E+02
  0.306959E+02
  0.302408E+02
  0.295597E+02
  0.296031E+02
  0.284827E+02
  0.323964E+02
  0.370958E+02
  0.396686E+02
  0.475131E+02
  0.533267E+02
  0.602658E+02
  0.682276E+02
  0.751311E+02
  0.817614E+02
  0.891427E+02
  0.963258E+02
  0.105835E+03
  0.103566E+03
  0.125099E+03
  0.121759E+03
  0.120091E+03
  0.123878E+03
  0.127932E+03
  0.130987E+03
  0.134837E+03
  0.139629E+03
  0.142925E+03
  0.147443E+03
  0.151707E+03
  0.156876E+03
  0.161084E+03
  0.166610E+03
  0.172874E+03
  0.177320E+03
  0.181434E+03
  0.187229E+03
  0.192137E+03
  0.197096E+03
  0.203342E+03
  0.208845E+03
  0.211442E+03
  0.213054E+03
  0.219462E+03
  0.225304E+03
  0.228803E+03
  0.230168E+03
  0.231315E+03
  0.234390E+03
  0.237422E+03
  0.239453E+03
  0.238849E+03
  0.238338E+03
  0.238162E+03
  0.238196E+03
  0.237243E+03
  0.235835E+03
  0.233808E+03
  0.230605E+03
  0.228575E+03
  0.226659E+03
  0.224141E+03
  0.220892E+03
  0.217876E+03
  0.215845E+03
  0.212223E+03
  0.208039E+03
  0.203417E+03
  0.200671E+03
  0.198255E+03
  0.194858E+03
  0.191137E+03
  0.187307E+03
  0.183648E+03
  0.179821E+03
  0.175955E+03
  0.172680E+03
  0.169375E+03
  0.166137E+03
  0.163675E+03
  0.161525E+03
  0.159822E+03
  0.158506E+03
  0.157918E+03
  0.158338E+03
  0.159291E+03
  0.160897E+03
  0.163351E+03
  0.166650E+03
  0.170418E+03
  0.174636E+03
  0.179693E+03
  0.185057E+03
  0.190741E+03
  0.197350E+03
  0.203618E+03
  0.209759E+03
  0.215914E+03
  0.222343E+03
  0.228714E+03
  0.234886E+03
  0.240616E+03
  0.246297E+03
  0.251521E+03
  0.256559E+03
  0.261390E+03
  0.265710E+03
  0.269887E+03
  0.273580E+03
  0.277144E+03
  0.280344E+03
  0.283262E+03
  0.285899E+03
  0.288271E+03
  0.290430E+03
  0.292248E+03
  0.293791E+03
  0.295104E+03
  0.296179E+03
  0.297082E+03
  0.297686E+03
  0.298191E+03
  0.298494E+03
  0.298634E+03
  0.298646E+03
  0.298447E+03
  0.297917E+03
  0.297016E+03
  0.295514E+03
  0.293315E+03
  0.290270E+03
  0.286264E+03
  0.281177E+03
  0.274846E+03
  0.267280E+03
  0.258050E+03
  0.247067E+03
  0.233960E+03
  0.217944E+03
  0.198670E+03
  0.185335E+03
  0.232828E+03
  0.355256E-04
 -0.117507E+00
  0.983453E-01
  0.150421E+00
  0.228360E+00
  0.292300E+00
  0.350002E+00
  0.392568E+00
  0.432546E+00
  0.446717E+00
  0.487273E+00
  0.509284E+00
  0.511677E+00
  0.501560E+00
  0.456715E+00
  0.471372E+00
  0.533224E+00
  0.637885E+00
  0.751579E+00
  0.852790E+00
  0.943936E+00
  0.101431E+01
  0.108879E+01
  0.116316E+01
  0.124187E+01
  0.133171E+01
  0.136836E+01
  0.149823E+01
  0.149215E+01
  0.149334E+01
  0.151652E+01
  0.153882E+01
  0.155660E+01
  0.156907E+01
  0.157795E+01
  0.159107E+01
  0.160279E+01
  0.161629E+01
  0.162069E+01
  0.162402E+01
  0.162935E+01
  0.163321E+01
  0.163380E+01
  0.162928E+01
  0.162144E+01
  0.160997E+01
  0.159495E+01
  0.157759E+01
  0.155795E+01
  0.153403E+01
  0.150788E+01
  0.147759E+01
  0.144550E+01
  0.141148E+01
  0.137520E+01
  0.133505E+01
  0.129051E+01
  0.124588E+01
  0.120226E+01
  0.115868E+01
  0.111441E+01
  0.106937E+01
  0.102312E+01
  0.980141E+00
  0.937731E+00
  0.895534E+00
  0.854946E+00
  0.813494E+00
  0.772427E+00
  0.733103E+00
  0.694777E+00
  0.657070E+00
  0.620815E+00
  0.588285E+00
  0.557204E+00
  0.527788E+00
  0.497400E+00
  0.468091E+00
  0.443853E+00
  0.422501E+00
  0.403468E+00
  0.389041E+00
  0.377929E+00
  0.370354E+00
  0.368966E+00
  0.371749E+00
  0.379508E+00
  0.393998E+00
  0.412648E+00
  0.436631E+00
  0.467046E+00
  0.500061E+00
  0.536180E+00
  0.578108E+00
  0.622070E+00
  0.667919E+00
  0.717193E+00
  0.767076E+00
  0.816942E+00
  0.867774E+00
  0.917226E+00
  0.965155E+00
  0.101257E+01
  0.105825E+01
  0.110186E+01
  0.114315E+01
  0.117831E+01
  0.121224E+01
  0.124412E+01
  0.127254E+01
  0.129808E+01
  0.132011E+01
  0.133968E+01
  0.135701E+01
  0.137140E+01
  0.138358E+01
  0.139274E+01
  0.140024E+01
  0.140566E+01
  0.140910E+01
  0.141069E+01
  0.141069E+01
  0.140939E+01
  0.140646E+01
  0.140209E+01
  0.139660E+01
  0.139000E+01
  0.138207E+01
  0.137307E+01
  0.136221E+01
  0.135004E+01
  0.133640E+01
  0.132015E+01
  0.130186E+01
  0.128110E+01
  0.125759E+01
  0.123025E+01
  0.119961E+01
  0.116526E+01
  0.112687E+01
  0.108332E+01
  0.103347E+01
  0.977789E+00
  0.912530E+00
  0.836798E+00
  0.746061E+00
  0.630674E+00
  0.477332E+00
  0.226845E+00
 -0.304044E+00
 -0.126738E-05
  0.266926E+00
  0.570252E-01
  0.934987E-01
  0.100496E+00
  0.110042E+00
  0.133902E+00
  0.144705E+00
  0.157356E+00
  0.163111E+00
  0.160693E+00
  0.157073E+00
  0.157304E+00
  0.151350E+00
  0.172147E+00
  0.197118E+00
  0.210790E+00
  0.252473E+00
  0.283365E+00
  0.320238E+00
  0.362545E+00
  0.399229E+00
  0.434460E+00
  0.473683E+00
  0.511852E+00
  0.562384E+00
  0.550324E+00
  0.664745E+00
  0.646998E+00
  0.638135E+00
  0.658260E+00
  0.679799E+00
  0.696034E+00
  0.716493E+00
  0.741957E+00
  0.759468E+00
  0.783478E+00
  0.806136E+00
  0.833604E+00
  0.855963E+00
  0.885328E+00
  0.918611E+00
  0.942236E+00
  0.964098E+00
  0.994890E+00
  0.102097E+01
  0.104732E+01
  0.108051E+01
  0.110975E+01
  0.112355E+01
  0.113212E+01
  0.116617E+01
  0.119721E+01
  0.121581E+01
  0.122306E+01
  0.122915E+01
  0.124549E+01
  0.126161E+01
  0.127240E+01
  0.126919E+01
  0.126647E+01
  0.126554E+01
  0.126572E+01
  0.126065E+01
  0.125317E+01
  0.124240E+01
  0.122538E+01
  0.121459E+01
  0.120441E+01
  0.119103E+01
  0.117377E+01
  0.115774E+01
  0.114695E+01
  0.112770E+01
  0.110547E+01
  0.108091E+01
  0.106632E+01
  0.105348E+01
  0.103543E+01
  0.101566E+01
  0.995305E+00
  0.975863E+00
  0.955528E+00
  0.934981E+00
  0.917581E+00
  0.900018E+00
  0.882814E+00
  0.869728E+00
  0.858308E+00
  0.849254E+00
  0.842260E+00
  0.839138E+00
  0.841372E+00
  0.846432E+00
  0.854971E+00
  0.868006E+00
  0.885538E+00
  0.905562E+00
  0.927975E+00
  0.954847E+00
  0.983350E+00
  0.101355E+01
  0.104867E+01
  0.108198E+01
  0.111461E+01
  0.114732E+01
  0.118148E+01
  0.121533E+01
  0.124813E+01
  0.127858E+01
  0.130876E+01
  0.133652E+01
  0.136329E+01
  0.138896E+01
  0.141192E+01
  0.143412E+01
  0.145374E+01
  0.147268E+01
  0.148968E+01
  0.150519E+01
  0.151920E+01
  0.153181E+01
  0.154328E+01
  0.155294E+01
  0.156114E+01
  0.156811E+01
  0.157382E+01
  0.157862E+01
  0.158183E+01
  0.158451E+01
  0.158612E+01
  0.158687E+01
  0.158694E+01
  0.158588E+01
  0.158306E+01
  0.157827E+01
  0.157029E+01
  0.155861E+01
  0.154243E+01
  0.152114E+01
  0.149411E+01
  0.146046E+01
  0.142026E+01
  0.137122E+01
  0.131285E+01
  0.124321E+01
  0.115810E+01
  0.105569E+01
  0.984828E+00
  0.123719E+01
  0.188774E-06
 -0.399485E+00
  0.335704E+00
  0.515592E+00
  0.786007E+00
  0.101021E+01
  0.121878E+01
  0.138317E+01
  0.154576E+01
  0.162747E+01
  0.179221E+01
  0.183033E+01
  0.173464E+01
  0.157077E+01
  0.129722E+01
  0.120870E+01
  0.123075E+01
  0.132515E+01
  0.140866E+01
  0.144717E+01
  0.145644E+01
  0.143512E+01
  0.142266E+01
  0.141496E+01
  0.142138E+01
  0.144850E+01
  0.143091E+01
  0.153334E+01
  0.152072E+01
  0.152872E+01
  0.155938E+01
  0.158934E+01
  0.161479E+01
  0.163483E+01
  0.165111E+01
  0.167189E+01
  0.169141E+01
  0.171321E+01
  0.172559E+01
  0.173703E+01
  0.175063E+01
  0.176281E+01
  0.177147E+01
  0.177468E+01
  0.177419E+01
  0.176966E+01
  0.176112E+01
  0.174987E+01
  0.173591E+01
  0.171702E+01
  0.169550E+01
  0.166906E+01
  0.164030E+01
  0.160904E+01
  0.157490E+01
  0.153610E+01
  0.149179E+01
  0.144699E+01
  0.140293E+01
  0.135848E+01
  0.131295E+01
  0.126605E+01
  0.121726E+01
  0.117195E+01
  0.112686E+01
  0.108157E+01
  0.103777E+01
  0.992458E+00
  0.947151E+00
  0.903523E+00
  0.860678E+00
  0.818163E+00
  0.777021E+00
  0.740132E+00
  0.704711E+00
  0.671054E+00
  0.635793E+00
  0.601536E+00
  0.573460E+00
  0.548828E+00
  0.526954E+00
  0.510888E+00
  0.499021E+00
  0.491719E+00
  0.492582E+00
  0.499049E+00
  0.512306E+00
  0.534836E+00
  0.563291E+00
  0.599385E+00
  0.644830E+00
  0.694403E+00
  0.748886E+00
  0.812156E+00
  0.879031E+00
  0.949373E+00
  0.102545E+01
  0.110330E+01
  0.118206E+01
  0.126318E+01
  0.134325E+01
  0.142206E+01
  0.150105E+01
  0.157844E+01
  0.165371E+01
  0.172641E+01
  0.179069E+01
  0.185392E+01
  0.191479E+01
  0.197108E+01
  0.202359E+01
  0.207131E+01
  0.211573E+01
  0.215719E+01
  0.219452E+01
  0.222882E+01
  0.225868E+01
  0.228619E+01
  0.231059E+01
  0.233203E+01
  0.235065E+01
  0.236687E+01
  0.238113E+01
  0.239292E+01
  0.240253E+01
  0.241034E+01
  0.241632E+01
  0.242006E+01
  0.242199E+01
  0.242062E+01
  0.241689E+01
  0.241045E+01
  0.239916E+01
  0.238397E+01
  0.236396E+01
  0.233843E+01
  0.230514E+01
  0.226509E+01
  0.221737E+01
  0.216115E+01
  0.209411E+01
  0.201404E+01
  0.192123E+01
  0.180790E+01
  0.167175E+01
  0.150309E+01
  0.128155E+01
  0.978366E+00
  0.469022E+00
 -0.634188E+00
 -0.240661E+00
  0.375204E+01
  0.804836E+00
  0.132508E+01
  0.143019E+01
  0.157247E+01
  0.192788E+01
  0.210805E+01
  0.232505E+01
  0.245698E+01
  0.244371E+01
  0.233405E+01
  0.220490E+01
  0.195979E+01
  0.202165E+01
  0.208987E+01
  0.201163E+01
  0.216858E+01
  0.219592E+01
  0.224692E+01
  0.231287E+01
  0.233551E+01
  0.234719E+01
  0.238248E+01
  0.242225E+01
  0.252918E+01
  0.237941E+01
  0.281288E+01
  0.272632E+01
  0.270097E+01
  0.279860E+01
  0.290301E+01
  0.298543E+01
  0.308659E+01
  0.320996E+01
  0.329964E+01
  0.341853E+01
  0.353294E+01
  0.366975E+01
  0.378536E+01
  0.393300E+01
  0.409952E+01
  0.422406E+01
  0.434195E+01
  0.450104E+01
  0.464008E+01
  0.478146E+01
  0.495538E+01
  0.511253E+01
  0.519963E+01
  0.526331E+01
  0.544649E+01
  0.561711E+01
  0.573051E+01
  0.579128E+01
  0.584743E+01
  0.595289E+01
  0.605830E+01
  0.613903E+01
  0.615253E+01
  0.616932E+01
  0.619495E+01
  0.622633E+01
  0.623240E+01
  0.622643E+01
  0.620401E+01
  0.614994E+01
  0.612670E+01
  0.610625E+01
  0.606926E+01
  0.601194E+01
  0.596044E+01
  0.593543E+01
  0.586615E+01
  0.578071E+01
  0.568233E+01
  0.563554E+01
  0.559751E+01
  0.553124E+01
  0.545499E+01
  0.537474E+01
  0.529856E+01
  0.521664E+01
  0.513264E+01
  0.506494E+01
  0.499555E+01
  0.492738E+01
  0.488144E+01
  0.484433E+01
  0.482023E+01
  0.480807E+01
  0.481793E+01
  0.485883E+01
  0.491655E+01
  0.499521E+01
  0.510123E+01
  0.523507E+01
  0.538532E+01
  0.555166E+01
  0.574684E+01
  0.595425E+01
  0.617453E+01
  0.642762E+01
  0.667262E+01
  0.691662E+01
  0.716409E+01
  0.742379E+01
  0.768484E+01
  0.794247E+01
  0.818835E+01
  0.843572E+01
  0.867056E+01
  0.890201E+01
  0.912928E+01
  0.934166E+01
  0.955198E+01
  0.974790E+01
  0.994157E+01
  0.101245E+02
  0.102996E+02
  0.104667E+02
  0.106263E+02
  0.107804E+02
  0.109243E+02
  0.110604E+02
  0.111898E+02
  0.113119E+02
  0.114292E+02
  0.115366E+02
  0.116417E+02
  0.117405E+02
  0.118342E+02
  0.119243E+02
  0.120073E+02
  0.120779E+02
  0.121340E+02
  0.121653E+02
  0.121680E+02
  0.121355E+02
  0.120619E+02
  0.119416E+02
  0.117679E+02
  0.115383E+02
  0.112324E+02
  0.108444E+02
  0.103560E+02
  0.973006E+01
  0.894652E+01
  0.841905E+01
  0.106698E+02
  0.148211E+00
 -0.398728E+00
  0.337188E+00
  0.517313E+00
  0.787890E+00
  0.101214E+01
  0.122064E+01
  0.138487E+01
  0.154723E+01
  0.162863E+01
  0.179318E+01
  0.183142E+01
  0.173638E+01
  0.157355E+01
  0.130093E+01
  0.121253E+01
  0.123412E+01
  0.132760E+01
  0.141011E+01
  0.144787E+01
  0.145666E+01
  0.143506E+01
  0.142241E+01
  0.141457E+01
  0.142098E+01
  0.144813E+01
  0.143058E+01
  0.153313E+01
  0.152066E+01
  0.152862E+01
  0.155919E+01
  0.158906E+01
  0.161440E+01
  0.163435E+01
  0.165052E+01
  0.167119E+01
  0.169060E+01
  0.171226E+01
  0.172451E+01
  0.173582E+01
  0.174929E+01
  0.176133E+01
  0.176984E+01
  0.177293E+01
  0.177231E+01
  0.176766E+01
  0.175900E+01
  0.174764E+01
  0.173358E+01
  0.171460E+01
  0.169302E+01
  0.166655E+01
  0.163779E+01
  0.160654E+01
  0.157246E+01
  0.153374E+01
  0.148958E+01
  0.144495E+01
  0.140109E+01
  0.135689E+01
  0.131166E+01
  0.126508E+01
  0.121665E+01
  0.117175E+01
  0.112709E+01
  0.108227E+01
  0.103897E+01
  0.994193E+00
  0.949443E+00
  0.906386E+00
  0.864140E+00
  0.822236E+00
  0.781711E+00
  0.745454E+00
  0.710672E+00
  0.677656E+00
  0.643050E+00
  0.609452E+00
  0.582038E+00
  0.558076E+00
  0.536878E+00
  0.521501E+00
  0.510335E+00
  0.503746E+00
  0.505356E+00
  0.512589E+00
  0.526640E+00
  0.550018E+00
  0.579349E+00
  0.616365E+00
  0.662799E+00
  0.713398E+00
  0.768959E+00
  0.833382E+00
  0.901448E+00
  0.973024E+00
  0.105040E+01
  0.112959E+01
  0.120970E+01
  0.129224E+01
  0.137374E+01
  0.145396E+01
  0.153443E+01
  0.161326E+01
  0.168996E+01
  0.176412E+01
  0.182979E+01
  0.189440E+01
  0.195663E+01
  0.201421E+01
  0.206800E+01
  0.211693E+01
  0.216254E+01
  0.220517E+01
  0.224361E+01
  0.227903E+01
  0.230998E+01
  0.233860E+01
  0.236411E+01
  0.238667E+01
  0.240643E+01
  0.242381E+01
  0.243927E+01
  0.245228E+01
  0.246316E+01
  0.247227E+01
  0.247959E+01
  0.248474E+01
  0.248808E+01
  0.248823E+01
  0.248607E+01
  0.248124E+01
  0.247169E+01
  0.245830E+01
  0.244017E+01
  0.241662E+01
  0.238542E+01
  0.234753E+01
  0.230198E+01
  0.224793E+01
  0.218306E+01
  0.210522E+01
  0.201466E+01
  0.190376E+01
  0.177022E+01
  0.160475E+01
  0.138836E+01
  0.109607E+01
  0.610361E+00
 -0.460645E+00
 -0.572819E-01
  0.374780E+01
  0.793864E+00
  0.131230E+01
  0.141571E+01
  0.155694E+01
  0.191165E+01
  0.209093E+01
  0.230689E+01
  0.243762E+01
  0.242318E+01
  0.231294E+01
  0.218440E+01
  0.194010E+01
  0.200360E+01
  0.207453E+01
  0.199967E+01
  0.216033E+01
  0.219099E+01
  0.224437E+01
  0.231166E+01
  0.233488E+01
  0.234670E+01
  0.238202E+01
  0.242187E+01
  0.252897E+01
  0.237948E+01
  0.281339E+01
  0.272701E+01
  0.270171E+01
  0.279932E+01
  0.290372E+01
  0.298612E+01
  0.308728E+01
  0.321063E+01
  0.330029E+01
  0.341915E+01
  0.353354E+01
  0.367033E+01
  0.378595E+01
  0.393360E+01
  0.410013E+01
  0.422466E+01
  0.434254E+01
  0.450161E+01
  0.464063E+01
  0.478198E+01
  0.495586E+01
  0.511295E+01
  0.519997E+01
  0.526359E+01
  0.544671E+01
  0.561728E+01
  0.573060E+01
  0.579127E+01
  0.584733E+01
  0.595269E+01
  0.605800E+01
  0.613863E+01
  0.615200E+01
  0.616867E+01
  0.619418E+01
  0.622545E+01
  0.623142E+01
  0.622534E+01
  0.620283E+01
  0.614868E+01
  0.612537E+01
  0.610486E+01
  0.606782E+01
  0.601045E+01
  0.595890E+01
  0.593384E+01
  0.586449E+01
  0.577900E+01
  0.568056E+01
  0.563373E+01
  0.559566E+01
  0.552934E+01
  0.545304E+01
  0.537272E+01
  0.529645E+01
  0.521442E+01
  0.513028E+01
  0.506241E+01
  0.499282E+01
  0.492443E+01
  0.487822E+01
  0.484081E+01
  0.481638E+01
  0.480385E+01
  0.481331E+01
  0.485380E+01
  0.491108E+01
  0.498928E+01
  0.509482E+01
  0.522817E+01
  0.537794E+01
  0.554378E+01
  0.573846E+01
  0.594538E+01
  0.616518E+01
  0.641779E+01
  0.666233E+01
  0.690588E+01
  0.715289E+01
  0.741217E+01
  0.767282E+01
  0.793007E+01
  0.817559E+01
  0.842261E+01
  0.865713E+01
  0.888828E+01
  0.911525E+01
  0.932735E+01
  0.953739E+01
  0.973306E+01
  0.992646E+01
  0.101092E+02
  0.102840E+02
  0.104508E+02
  0.106103E+02
  0.107641E+02
  0.109078E+02
  0.110437E+02
  0.111728E+02
  0.112947E+02
  0.114119E+02
  0.115191E+02
  0.116240E+02
  0.117226E+02
  0.118163E+02
  0.119063E+02
  0.119891E+02
  0.120597E+02
  0.121158E+02
  0.121470E+02
  0.121497E+02
  0.121172E+02
  0.120437E+02
  0.119234E+02
  0.117498E+02
  0.115203E+02
  0.112146E+02
  0.108268E+02
  0.103388E+02
  0.971343E+01
  0.893123E+01
  0.840690E+01
  0.106603E+02
  0.109478E+00
 -0.757624E-03
 -0.148462E-02
 -0.172156E-02
 -0.188282E-02
 -0.192418E-02
 -0.185528E-02
 -0.170195E-02
 -0.146675E-02
 -0.116356E-02
 -0.972827E-03
 -0.108614E-02
 -0.174120E-02
 -0.278439E-02
 -0.370472E-02
 -0.383373E-02
 -0.336766E-02
 -0.245679E-02
 -0.144491E-02
 -0.701210E-03
 -0.218413E-03
  0.610139E-04
  0.253152E-03
  0.386361E-03
  0.406929E-03
  0.372351E-03
  0.334964E-03
  0.209287E-03
  0.594554E-04
  0.998165E-04
  0.192449E-03
  0.286852E-03
  0.384747E-03
  0.480829E-03
  0.585272E-03
  0.700949E-03
  0.816862E-03
  0.942816E-03
  0.107809E-02
  0.120990E-02
  0.134492E-02
  0.147785E-02
  0.162332E-02
  0.175342E-02
  0.188374E-02
  0.200447E-02
  0.212182E-02
  0.222906E-02
  0.232768E-02
  0.241224E-02
  0.247243E-02
  0.250410E-02
  0.250848E-02
  0.249073E-02
  0.244456E-02
  0.235487E-02
  0.221813E-02
  0.204499E-02
  0.183860E-02
  0.158569E-02
  0.129477E-02
  0.970992E-03
  0.605481E-03
  0.205281E-03
 -0.233227E-03
 -0.702673E-03
 -0.119968E-02
 -0.173512E-02
 -0.229154E-02
 -0.286319E-02
 -0.346238E-02
 -0.407304E-02
 -0.468991E-02
 -0.532233E-02
 -0.596127E-02
 -0.660225E-02
 -0.725639E-02
 -0.791566E-02
 -0.857753E-02
 -0.924822E-02
 -0.992361E-02
 -0.106132E-01
 -0.113137E-01
 -0.120271E-01
 -0.127743E-01
 -0.135398E-01
 -0.143342E-01
 -0.151820E-01
 -0.160581E-01
 -0.169794E-01
 -0.179686E-01
 -0.189946E-01
 -0.200731E-01
 -0.212263E-01
 -0.224170E-01
 -0.236507E-01
 -0.249571E-01
 -0.262901E-01
 -0.276429E-01
 -0.290623E-01
 -0.304842E-01
 -0.319078E-01
 -0.333778E-01
 -0.348190E-01
 -0.362552E-01
 -0.377100E-01
 -0.390972E-01
 -0.404815E-01
 -0.418396E-01
 -0.431287E-01
 -0.444106E-01
 -0.456220E-01
 -0.468073E-01
 -0.479737E-01
 -0.490814E-01
 -0.502137E-01
 -0.512960E-01
 -0.524097E-01
 -0.535125E-01
 -0.546372E-01
 -0.557815E-01
 -0.569430E-01
 -0.581419E-01
 -0.593621E-01
 -0.606257E-01
 -0.619292E-01
 -0.632645E-01
 -0.646747E-01
 -0.660888E-01
 -0.676170E-01
 -0.691787E-01
 -0.707871E-01
 -0.725255E-01
 -0.743328E-01
 -0.762141E-01
 -0.781930E-01
 -0.802844E-01
 -0.824388E-01
 -0.846119E-01
 -0.867771E-01
 -0.889587E-01
 -0.911820E-01
 -0.934343E-01
 -0.958526E-01
 -0.984702E-01
 -0.101659E+00
 -0.106809E+00
 -0.117700E+00
 -0.141339E+00
 -0.173543E+00
 -0.183379E+00
  0.424482E-02
  0.109721E-01
  0.127769E-01
  0.144812E-01
  0.155319E-01
  0.162283E-01
  0.171213E-01
  0.181568E-01
  0.193575E-01
  0.205253E-01
  0.211130E-01
  0.204990E-01
  0.196908E-01
  0.180461E-01
  0.153371E-01
  0.119625E-01
  0.825010E-02
  0.492844E-02
  0.255335E-02
  0.120971E-02
  0.629082E-03
  0.483610E-03
  0.457190E-03
  0.376348E-03
  0.212721E-03
 -0.709513E-04
 -0.507117E-03
 -0.689771E-03
 -0.739872E-03