 Title= "ADflow Lift Distribution Data"
Variables = "eta" "CoordinateX" "CoordinateY" "CoordinateZ" "Lift" "Drag" "Normalized Lift" "Normalized Drag" "CL" "CD" "CLp" "CDp" "CLv" "CDv" "Ellptical" "thickness" "twist" "chord" 
Zone T= "LiftDist_01 allWalls: : z normal"
 I=          150
 DATAPACKING=BLOCK
  0.000000E+00
  0.671141E-02
  0.134228E-01
  0.201342E-01
  0.268456E-01
  0.335570E-01
  0.402685E-01
  0.469799E-01
  0.536913E-01
  0.604027E-01
  0.671141E-01
  0.738255E-01
  0.805369E-01
  0.872483E-01
  0.939597E-01
  0.100671E+00
  0.107383E+00
  0.114094E+00
  0.120805E+00
  0.127517E+00
  0.134228E+00
  0.140940E+00
  0.147651E+00
  0.154362E+00
  0.161074E+00
  0.167785E+00
  0.174497E+00
  0.181208E+00
  0.187919E+00
  0.194631E+00
  0.201342E+00
  0.208054E+00
  0.214765E+00
  0.221477E+00
  0.228188E+00
  0.234899E+00
  0.241611E+00
  0.248322E+00
  0.255034E+00
  0.261745E+00
  0.268456E+00
  0.275168E+00
  0.281879E+00
  0.288591E+00
  0.295302E+00
  0.302013E+00
  0.308725E+00
  0.315436E+00
  0.322148E+00
  0.328859E+00
  0.335570E+00
  0.342282E+00
  0.348993E+00
  0.355705E+00
  0.362416E+00
  0.369128E+00
  0.375839E+00
  0.382550E+00
  0.389262E+00
  0.395973E+00
  0.402685E+00
  0.409396E+00
  0.416107E+00
  0.422819E+00
  0.429530E+00
  0.436242E+00
  0.442953E+00
  0.449664E+00
  0.456376E+00
  0.463087E+00
  0.469799E+00
  0.476510E+00
  0.483221E+00
  0.489933E+00
  0.496644E+00
  0.503356E+00
  0.510067E+00
  0.516779E+00
  0.523490E+00
  0.530201E+00
  0.536913E+00
  0.543624E+00
  0.550336E+00
  0.557047E+00
  0.563758E+00
  0.570470E+00
  0.577181E+00
  0.583893E+00
  0.590604E+00
  0.597315E+00
  0.604027E+00
  0.610738E+00
  0.617450E+00
  0.624161E+00
  0.630872E+00
  0.637584E+00
  0.644295E+00
  0.651007E+00
  0.657718E+00
  0.664430E+00
  0.671141E+00
  0.677852E+00
  0.684564E+00
  0.691275E+00
  0.697987E+00
  0.704698E+00
  0.711409E+00
  0.718121E+00
  0.724832E+00
  0.731544E+00
  0.738255E+00
  0.744966E+00
  0.751678E+00
  0.758389E+00
  0.765101E+00
  0.771812E+00
  0.778523E+00
  0.785235E+00
  0.791946E+00
  0.798658E+00
  0.805369E+00
  0.812081E+00
  0.818792E+00
  0.825503E+00
  0.832215E+00
  0.838926E+00
  0.845638E+00
  0.852349E+00
  0.859060E+00
  0.865772E+00
  0.872483E+00
  0.879195E+00
  0.885906E+00
  0.892617E+00
  0.899329E+00
  0.906040E+00
  0.912752E+00
  0.919463E+00
  0.926174E+00
  0.932886E+00
  0.939597E+00
  0.946309E+00
  0.953020E+00
  0.959732E+00
  0.966443E+00
  0.973154E+00
  0.979866E+00
  0.986577E+00
  0.993289E+00
  0.100000E+01
  0.000000E+00
  0.000000E+00
  0.000000E+00
  0.000000E+00
  0.000000E+00
  0.000000E+00
  0.000000E+00
  0.000000E+00
  0.000000E+00
  0.000000E+00
  0.000000E+00
  0.000000E+00
  0.000000E+00
  0.000000E+00
  0.000000E+00
  0.000000E+00
  0.000000E+00
  0.000000E+00
  0.000000E+00
  0.000000E+00
  0.000000E+00
  0.000000E+00
  0.000000E+00
  0.000000E+00
  0.000000E+00
  0.000000E+00
  0.000000E+00
  0.000000E+00
  0.000000E+00
  0.000000E+00
  0.000000E+00
  0.000000E+00
  0.000000E+00
  0.000000E+00
  0.000000E+00
  0.000000E+00
  0.000000E+00
  0.000000E+00
  0.000000E+00
  0.000000E+00
  0.000000E+00
  0.000000E+00
  0.000000E+00
  0.000000E+00
  0.000000E+00
  0.000000E+00
  0.000000E+00
  0.000000E+00
  0.000000E+00
  0.000000E+00
  0.000000E+00
  0.000000E+00
  0.000000E+00
  0.000000E+00
  0.000000E+00
  0.000000E+00
  0.000000E+00
  0.000000E+00
  0.000000E+00
  0.000000E+00
  0.000000E+00
  0.000000E+00
  0.000000E+00
  0.000000E+00
  0.000000E+00
  0.000000E+00
  0.000000E+00
  0.000000E+00
  0.000000E+00
  0.000000E+00
  0.000000E+00
  0.000000E+00
  0.000000E+00
  0.000000E+00
  0.000000E+00
  0.000000E+00
  0.000000E+00
  0.000000E+00
  0.000000E+00
  0.000000E+00
  0.000000E+00
  0.000000E+00
  0.000000E+00
  0.000000E+00
  0.000000E+00
  0.000000E+00
  0.000000E+00
  0.000000E+00
  0.000000E+00
  0.000000E+00
  0.000000E+00
  0.000000E+00
  0.000000E+00
  0.000000E+00
  0.000000E+00
  0.000000E+00
  0.000000E+00
  0.000000E+00
  0.000000E+00
  0.000000E+00
  0.000000E+00
  0.000000E+00
  0.000000E+00
  0.000000E+00
  0.000000E+00
  0.000000E+00
  0.000000E+00
  0.000000E+00
  0.000000E+00
  0.000000E+00
  0.000000E+00
  0.000000E+00
  0.000000E+00
  0.000000E+00
  0.000000E+00
  0.000000E+00
  0.000000E+00
  0.000000E+00
  0.000000E+00
  0.000000E+00
  0.000000E+00
  0.000000E+00
  0.000000E+00
  0.000000E+00
  0.000000E+00
  0.000000E+00
  0.000000E+00
  0.000000E+00
  0.000000E+00
  0.000000E+00
  0.000000E+00
  0.000000E+00
  0.000000E+00
  0.000000E+00
  0.000000E+00
  0.000000E+00
  0.000000E+00
  0.000000E+00
  0.000000E+00
  0.000000E+00
  0.000000E+00
  0.000000E+00
  0.000000E+00
  0.000000E+00
  0.000000E+00
  0.000000E+00
  0.000000E+00
  0.000000E+00
  0.000000E+00
  0.000000E+00
  0.000000E+00
  0.000000E+00
  0.000000E+00
  0.000000E+00
  0.000000E+00
  0.000000E+00
  0.000000E+00
  0.000000E+00
  0.000000E+00
  0.000000E+00
  0.000000E+00
  0.000000E+00
  0.000000E+00
  0.000000E+00
  0.000000E+00
  0.000000E+00
  0.000000E+00
  0.000000E+00
  0.000000E+00
  0.000000E+00
  0.000000E+00
  0.000000E+00
  0.000000E+00
  0.000000E+00
  0.000000E+00
  0.000000E+00
  0.000000E+00
  0.000000E+00
  0.000000E+00
  0.000000E+00
  0.000000E+00
  0.000000E+00
  0.000000E+00
  0.000000E+00
  0.000000E+00
  0.000000E+00
  0.000000E+00
  0.000000E+00
  0.000000E+00
  0.000000E+00
  0.000000E+00
  0.000000E+00
  0.000000E+00
  0.000000E+00
  0.000000E+00
  0.000000E+00
  0.000000E+00
  0.000000E+00
  0.000000E+00
  0.000000E+00
  0.000000E+00
  0.000000E+00
  0.000000E+00
  0.000000E+00
  0.000000E+00
  0.000000E+00
  0.000000E+00
  0.000000E+00
  0.000000E+00
  0.000000E+00
  0.000000E+00
  0.000000E+00
  0.000000E+00
  0.000000E+00
  0.000000E+00
  0.000000E+00
  0.000000E+00
  0.000000E+00
  0.000000E+00
  0.000000E+00
  0.000000E+00
  0.000000E+00
  0.000000E+00
  0.000000E+00
  0.000000E+00
  0.000000E+00
  0.000000E+00
  0.000000E+00
  0.000000E+00
  0.000000E+00
  0.000000E+00
  0.000000E+00
  0.000000E+00
  0.000000E+00
  0.000000E+00
  0.000000E+00
  0.000000E+00
  0.000000E+00
  0.000000E+00
  0.000000E+00
  0.000000E+00
  0.000000E+00
  0.000000E+00
  0.000000E+00
  0.000000E+00
  0.000000E+00
  0.000000E+00
  0.000000E+00
  0.000000E+00
  0.000000E+00
  0.000000E+00
  0.000000E+00
  0.000000E+00
  0.000000E+00
  0.000000E+00
  0.000000E+00
  0.000000E+00
  0.000000E+00
  0.000000E+00
  0.000000E+00
  0.000000E+00
  0.000000E+00
  0.000000E+00
  0.000000E+00
  0.000000E+00
  0.000000E+00
  0.000000E+00
  0.000000E+00
  0.000000E+00
  0.000000E+00
  0.000000E+00
  0.000000E+00
  0.000000E+00
  0.000000E+00
  0.000000E+00
  0.000000E+00
  0.000000E+00
  0.000000E+00
  0.000000E+00
  0.000000E+00
  0.000000E+00
  0.000000E+00
  0.000000E+00
  0.000000E+00
  0.000000E+00
  0.000000E+00
  0.000000E+00
  0.000000E+00
  0.000000E+00
  0.000000E+00
  0.000000E+00
  0.000000E+00
  0.000000E+00
  0.000000E+00
  0.000000E+00
  0.000000E+00
  0.000000E+00
  0.000000E+00
  0.000000E+00
  0.000000E+00
  0.508000E+00
  0.538474E+00
  0.568949E+00
  0.599423E+00
  0.629898E+00
  0.660372E+00
  0.690846E+00
  0.721321E+00
  0.751795E+00
  0.782269E+00
  0.812744E+00
  0.843218E+00
  0.873693E+00
  0.904167E+00
  0.934641E+00
  0.965116E+00
  0.995590E+00
  0.102606E+01
  0.105654E+01
  0.108701E+01
  0.111749E+01
  0.114796E+01
  0.117844E+01
  0.120891E+01
  0.123939E+01
  0.126986E+01
  0.130033E+01
  0.133081E+01
  0.136128E+01
  0.139176E+01
  0.142223E+01
  0.145271E+01
  0.148318E+01
  0.151365E+01
  0.154413E+01
  0.157460E+01
  0.160508E+01
  0.163555E+01
  0.166603E+01
  0.169650E+01
  0.172698E+01
  0.175745E+01
  0.178792E+01
  0.181840E+01
  0.184887E+01
  0.187935E+01
  0.190982E+01
  0.194030E+01
  0.197077E+01
  0.200124E+01
  0.203172E+01
  0.206219E+01
  0.209267E+01
  0.212314E+01
  0.215362E+01
  0.218409E+01
  0.221457E+01
  0.224504E+01
  0.227551E+01
  0.230599E+01
  0.233646E+01
  0.236694E+01
  0.239741E+01
  0.242789E+01
  0.245836E+01
  0.248883E+01
  0.251931E+01
  0.254978E+01
  0.258026E+01
  0.261073E+01
  0.264121E+01
  0.267168E+01
  0.270216E+01
  0.273263E+01
  0.276310E+01
  0.279358E+01
  0.282405E+01
  0.285453E+01
  0.288500E+01
  0.291548E+01
  0.294595E+01
  0.297642E+01
  0.300690E+01
  0.303737E+01
  0.306785E+01
  0.309832E+01
  0.312880E+01
  0.315927E+01
  0.318975E+01
  0.322022E+01
  0.325069E+01
  0.328117E+01
  0.331164E+01
  0.334212E+01
  0.337259E+01
  0.340307E+01
  0.343354E+01
  0.346401E+01
  0.349449E+01
  0.352496E+01
  0.355544E+01
  0.358591E+01
  0.361639E+01
  0.364686E+01
  0.367734E+01
  0.370781E+01
  0.373828E+01
  0.376876E+01
  0.379923E+01
  0.382971E+01
  0.386018E+01
  0.389066E+01
  0.392113E+01
  0.395160E+01
  0.398208E+01
  0.401255E+01
  0.404303E+01
  0.407350E+01
  0.410398E+01
  0.413445E+01
  0.416493E+01
  0.419540E+01
  0.422587E+01
  0.425635E+01
  0.428682E+01
  0.431730E+01
  0.434777E+01
  0.437825E+01
  0.440872E+01
  0.443919E+01
  0.446967E+01
  0.450014E+01
  0.453062E+01
  0.456109E+01
  0.459157E+01
  0.462204E+01
  0.465252E+01
  0.468299E+01
  0.471346E+01
  0.474394E+01
  0.477441E+01
  0.480489E+01
  0.483536E+01
  0.486584E+01
  0.489631E+01
  0.492678E+01
  0.495726E+01
  0.498773E+01
  0.501821E+01
  0.504868E+01
 -0.805796E+01
  0.236846E+01
  0.267111E+01
  0.404285E+01
  0.518950E+01
  0.519380E+01
  0.560459E+01
  0.577375E+01
  0.505085E+01
  0.593039E+01
  0.654003E+01
  0.662987E+01
  0.777357E+01
  0.703805E+01
  0.739461E+01
  0.803176E+01
  0.839416E+01
  0.945423E+01
  0.106644E+02
  0.123411E+02
  0.137892E+02
  0.153909E+02
  0.169218E+02
  0.182146E+02
  0.194171E+02
  0.199895E+02
  0.217843E+02
  0.219453E+02
  0.227698E+02
  0.236797E+02
  0.245393E+02
  0.254078E+02
  0.259561E+02
  0.265013E+02
  0.273043E+02
  0.280045E+02
  0.287190E+02
  0.291061E+02
  0.295762E+02
  0.300216E+02
  0.305192E+02
  0.311988E+02
  0.316509E+02
  0.319175E+02
  0.322294E+02
  0.325263E+02
  0.327993E+02
  0.331547E+02
  0.336279E+02
  0.339761E+02
  0.340343E+02
  0.342235E+02
  0.345748E+02
  0.350077E+02
  0.351793E+02
  0.352154E+02
  0.353282E+02
  0.355652E+02
  0.358983E+02
  0.361004E+02
  0.362349E+02
  0.363369E+02
  0.365168E+02
  0.367034E+02
  0.368846E+02
  0.370276E+02
  0.371131E+02
  0.371849E+02
  0.372814E+02
  0.373781E+02
  0.374686E+02
  0.375560E+02
  0.376852E+02
  0.378068E+02
  0.378542E+02
  0.378507E+02
  0.378439E+02
  0.378976E+02
  0.379459E+02
  0.379849E+02
  0.379891E+02
  0.379817E+02
  0.379620E+02
  0.379329E+02
  0.379052E+02
  0.378746E+02
  0.378361E+02
  0.378009E+02
  0.377664E+02
  0.377193E+02
  0.376628E+02
  0.375926E+02
  0.375281E+02
  0.374581E+02
  0.373775E+02
  0.372884E+02
  0.371905E+02
  0.370805E+02
  0.369473E+02
  0.368063E+02
  0.366598E+02
  0.365244E+02
  0.363868E+02
  0.362311E+02
  0.360398E+02
  0.358405E+02
  0.356478E+02
  0.354563E+02
  0.352581E+02
  0.350328E+02
  0.348008E+02
  0.345588E+02
  0.343075E+02
  0.340519E+02
  0.337693E+02
  0.334819E+02
  0.331791E+02
  0.328688E+02
  0.325369E+02
  0.321874E+02
  0.318293E+02
  0.314568E+02
  0.310642E+02
  0.306442E+02
  0.302083E+02
  0.297582E+02
  0.292759E+02
  0.287858E+02
  0.282448E+02
  0.276885E+02
  0.271122E+02
  0.264810E+02
  0.258221E+02
  0.251304E+02
  0.243933E+02
  0.235826E+02
  0.227204E+02
  0.217943E+02
  0.207981E+02
  0.197074E+02
  0.184880E+02
  0.171664E+02
  0.156555E+02
  0.139456E+02
  0.119507E+02
  0.943292E+01
  0.595711E+01
  0.567815E+00
 -0.102011E+02
 -0.575770E-04
  0.283705E+02
  0.631596E+01
  0.104814E+02
  0.117421E+02
  0.129284E+02
  0.159459E+02
  0.169166E+02
  0.180684E+02
  0.184454E+02
  0.176044E+02
  0.164276E+02
  0.156719E+02
  0.145592E+02
  0.146436E+02
  0.150878E+02
  0.145411E+02
  0.162739E+02
  0.174812E+02
  0.194539E+02
  0.222216E+02
  0.252837E+02
  0.279154E+02
  0.316666E+02
  0.344220E+02
  0.375030E+02
  0.365830E+02
  0.441902E+02
  0.434857E+02
  0.447989E+02
  0.477251E+02
  0.506227E+02
  0.533686E+02
  0.558646E+02
  0.586598E+02
  0.614941E+02
  0.644870E+02
  0.673135E+02
  0.699613E+02
  0.723631E+02
  0.748744E+02
  0.775943E+02
  0.805767E+02
  0.831115E+02
  0.855372E+02
  0.878650E+02
  0.901820E+02
  0.927764E+02
  0.957458E+02
  0.988359E+02
  0.100952E+03
  0.102761E+03
  0.105098E+03
  0.107917E+03
  0.110880E+03
  0.113116E+03
  0.115110E+03
  0.117352E+03
  0.119912E+03
  0.122739E+03
  0.125133E+03
  0.127366E+03
  0.129564E+03
  0.131848E+03
  0.134223E+03
  0.136597E+03
  0.138685E+03
  0.140702E+03
  0.142720E+03
  0.144874E+03
  0.147083E+03
  0.149354E+03
  0.151759E+03
  0.154292E+03
  0.156696E+03
  0.158533E+03
  0.160206E+03
  0.161877E+03
  0.163900E+03
  0.165978E+03
  0.168065E+03
  0.170093E+03
  0.172070E+03
  0.174006E+03
  0.175945E+03
  0.177874E+03
  0.179786E+03
  0.181687E+03
  0.183573E+03
  0.185432E+03
  0.187056E+03
  0.188577E+03
  0.189990E+03
  0.191517E+03
  0.193013E+03
  0.194441E+03
  0.195920E+03
  0.197349E+03
  0.198703E+03
  0.200006E+03
  0.201230E+03
  0.202406E+03
  0.203769E+03
  0.205123E+03
  0.206343E+03
  0.207328E+03
  0.208088E+03
  0.208999E+03
  0.209975E+03
  0.210875E+03
  0.211733E+03
  0.212464E+03
  0.213170E+03
  0.213866E+03
  0.214462E+03
  0.215004E+03
  0.215393E+03
  0.215793E+03
  0.216103E+03
  0.216331E+03
  0.216452E+03
  0.216488E+03
  0.216489E+03
  0.216350E+03
  0.216052E+03
  0.215660E+03
  0.215170E+03
  0.214555E+03
  0.213758E+03
  0.212812E+03
  0.211683E+03
  0.210374E+03
  0.208826E+03
  0.207054E+03
  0.205021E+03
  0.202721E+03
  0.200023E+03
  0.196964E+03
  0.193467E+03
  0.189461E+03
  0.184878E+03
  0.179551E+03
  0.173540E+03
  0.166496E+03
  0.158391E+03
  0.149006E+03
  0.137856E+03
  0.124255E+03
  0.109281E+03
  0.124959E+03
  0.250306E-04
 -0.294392E+00
  0.865301E-01
  0.975872E-01
  0.147703E+00
  0.189595E+00
  0.189752E+00
  0.204760E+00
  0.210940E+00
  0.184529E+00
  0.216663E+00
  0.238935E+00
  0.242218E+00
  0.284002E+00
  0.257130E+00
  0.270157E+00
  0.293435E+00
  0.306675E+00
  0.345404E+00
  0.389617E+00
  0.450873E+00
  0.503777E+00
  0.562294E+00
  0.618226E+00
  0.665457E+00
  0.709389E+00
  0.730301E+00
  0.795874E+00
  0.801756E+00
  0.831879E+00
  0.865121E+00
  0.896528E+00
  0.928257E+00
  0.948290E+00
  0.968207E+00
  0.997545E+00
  0.102313E+01
  0.104923E+01
  0.106337E+01
  0.108054E+01
  0.109682E+01
  0.111500E+01
  0.113983E+01
  0.115634E+01
  0.116608E+01
  0.117748E+01
  0.118832E+01
  0.119830E+01
  0.121128E+01
  0.122857E+01
  0.124129E+01
  0.124342E+01
  0.125033E+01
  0.126317E+01
  0.127898E+01
  0.128525E+01
  0.128657E+01
  0.129069E+01
  0.129935E+01
  0.131152E+01
  0.131890E+01
  0.132382E+01
  0.132754E+01
  0.133411E+01
  0.134093E+01
  0.134755E+01
  0.135278E+01
  0.135590E+01
  0.135852E+01
  0.136205E+01
  0.136558E+01
  0.136889E+01
  0.137208E+01
  0.137680E+01
  0.138125E+01
  0.138298E+01
  0.138285E+01
  0.138260E+01
  0.138456E+01
  0.138633E+01
  0.138775E+01
  0.138791E+01
  0.138764E+01
  0.138692E+01
  0.138585E+01
  0.138484E+01
  0.138372E+01
  0.138231E+01
  0.138103E+01
  0.137977E+01
  0.137805E+01
  0.137598E+01
  0.137342E+01
  0.137106E+01
  0.136850E+01
  0.136556E+01
  0.136231E+01
  0.135873E+01
  0.135471E+01
  0.134985E+01
  0.134469E+01
  0.133934E+01
  0.133439E+01
  0.132937E+01
  0.132368E+01
  0.131669E+01
  0.130941E+01
  0.130237E+01
  0.129537E+01
  0.128813E+01
  0.127990E+01
  0.127142E+01
  0.126258E+01
  0.125340E+01
  0.124406E+01
  0.123374E+01
  0.122324E+01
  0.121217E+01
  0.120084E+01
  0.118871E+01
  0.117595E+01
  0.116286E+01
  0.114925E+01
  0.113491E+01
  0.111956E+01
  0.110364E+01
  0.108720E+01
  0.106957E+01
  0.105167E+01
  0.103190E+01
  0.101158E+01
  0.990527E+00
  0.967464E+00
  0.943394E+00
  0.918120E+00
  0.891193E+00
  0.861573E+00
  0.830075E+00
  0.796238E+00
  0.759845E+00
  0.719998E+00
  0.675446E+00
  0.627162E+00
  0.571961E+00
  0.509494E+00
  0.436612E+00
  0.344625E+00
  0.217639E+00
  0.207447E-01
 -0.372689E+00
 -0.210353E-05
  0.214120E+00
  0.476684E-01
  0.791066E-01
  0.886214E-01
  0.975745E-01
  0.120348E+00
  0.127674E+00
  0.136367E+00
  0.139212E+00
  0.132866E+00
  0.123984E+00
  0.118280E+00
  0.109883E+00
  0.110520E+00
  0.113872E+00
  0.109746E+00
  0.122824E+00
  0.131936E+00
  0.146824E+00
  0.167713E+00
  0.190824E+00
  0.210686E+00
  0.238997E+00
  0.259793E+00
  0.283046E+00
  0.276102E+00
  0.333516E+00
  0.328199E+00
  0.338110E+00
  0.360196E+00
  0.382064E+00
  0.402789E+00
  0.421627E+00
  0.442723E+00
  0.464114E+00
  0.486702E+00
  0.508035E+00
  0.528019E+00
  0.546146E+00
  0.565099E+00
  0.585627E+00
  0.608136E+00
  0.627267E+00
  0.645574E+00
  0.663143E+00
  0.680630E+00
  0.700211E+00
  0.722622E+00
  0.745944E+00
  0.761917E+00
  0.775569E+00
  0.793202E+00
  0.814481E+00
  0.836845E+00
  0.853722E+00
  0.868771E+00
  0.885692E+00
  0.905009E+00
  0.926349E+00
  0.944419E+00
  0.961266E+00
  0.977856E+00
  0.995093E+00
  0.101302E+01
  0.103094E+01
  0.104669E+01
  0.106192E+01
  0.107715E+01
  0.109340E+01
  0.111008E+01
  0.112722E+01
  0.114537E+01
  0.116449E+01
  0.118263E+01
  0.119649E+01
  0.120912E+01
  0.122173E+01
  0.123700E+01
  0.125269E+01
  0.126843E+01
  0.128374E+01
  0.129867E+01
  0.131328E+01
  0.132791E+01
  0.134246E+01
  0.135690E+01
  0.137124E+01
  0.138548E+01
  0.139951E+01
  0.141177E+01
  0.142325E+01
  0.143391E+01
  0.144543E+01
  0.145673E+01
  0.146750E+01
  0.147866E+01
  0.148945E+01
  0.149967E+01
  0.150950E+01
  0.151874E+01
  0.152762E+01
  0.153791E+01
  0.154812E+01
  0.155733E+01
  0.156476E+01
  0.157050E+01
  0.157738E+01
  0.158475E+01
  0.159153E+01
  0.159801E+01
  0.160353E+01
  0.160886E+01
  0.161411E+01
  0.161860E+01
  0.162270E+01
  0.162563E+01
  0.162866E+01
  0.163099E+01
  0.163271E+01
  0.163363E+01
  0.163390E+01
  0.163390E+01
  0.163286E+01
  0.163061E+01
  0.162765E+01
  0.162395E+01
  0.161931E+01
  0.161329E+01
  0.160615E+01
  0.159764E+01
  0.158776E+01
  0.157607E+01
  0.156270E+01
  0.154736E+01
  0.153000E+01
  0.150963E+01
  0.148655E+01
  0.146015E+01
  0.142992E+01
  0.139533E+01
  0.135512E+01
  0.130975E+01
  0.125659E+01
  0.119542E+01
  0.112459E+01
  0.104044E+01
  0.937789E+00
  0.824778E+00
  0.943099E+00
  0.188913E-06
 -0.122831E+01
  0.362504E+00
  0.410520E+00
  0.623934E+00
  0.804182E+00
  0.810932E+00
  0.885417E+00
  0.925151E+00
  0.825068E+00
  0.978009E+00
  0.105389E+01
  0.100777E+01
  0.109158E+01
  0.896324E+00
  0.850185E+00
  0.831221E+00
  0.781886E+00
  0.794515E+00
  0.811442E+00
  0.853785E+00
  0.874788E+00
  0.901709E+00
  0.922985E+00
  0.934758E+00
  0.946971E+00
  0.937257E+00
  0.999645E+00
  0.100282E+01
  0.104513E+01
  0.109175E+01
  0.113642E+01
  0.118181E+01
  0.121259E+01
  0.124335E+01
  0.128646E+01
  0.132509E+01
  0.136491E+01
  0.138952E+01
  0.141840E+01
  0.144630E+01
  0.147700E+01
  0.151675E+01
  0.154581E+01
  0.156593E+01
  0.158844E+01
  0.161036E+01
  0.163125E+01
  0.165638E+01
  0.168766E+01
  0.171296E+01
  0.172376E+01
  0.174130E+01
  0.176724E+01
  0.179761E+01
  0.181490E+01
  0.182526E+01
  0.183973E+01
  0.186084E+01
  0.188716E+01
  0.190704E+01
  0.192352E+01
  0.193843E+01
  0.195775E+01
  0.197761E+01
  0.199738E+01
  0.201526E+01
  0.203015E+01
  0.204443E+01
  0.206021E+01
  0.207614E+01
  0.209189E+01
  0.210763E+01
  0.212587E+01
  0.214393E+01
  0.215803E+01
  0.216934E+01
  0.218058E+01
  0.219543E+01
  0.221013E+01
  0.222443E+01
  0.223684E+01
  0.224868E+01
  0.225992E+01
  0.227066E+01
  0.228158E+01
  0.229245E+01
  0.230291E+01
  0.231366E+01
  0.232456E+01
  0.233503E+01
  0.234501E+01
  0.235425E+01
  0.236391E+01
  0.237331E+01
  0.238214E+01
  0.239054E+01
  0.239846E+01
  0.240568E+01
  0.241148E+01
  0.241683E+01
  0.242189E+01
  0.242772E+01
  0.243349E+01
  0.243815E+01
  0.244043E+01
  0.244220E+01
  0.244443E+01
  0.244678E+01
  0.244870E+01
  0.244874E+01
  0.244831E+01
  0.244717E+01
  0.244535E+01
  0.244321E+01
  0.243914E+01
  0.243467E+01
  0.242894E+01
  0.242255E+01
  0.241443E+01
  0.240484E+01
  0.239449E+01
  0.238293E+01
  0.236977E+01
  0.235443E+01
  0.233763E+01
  0.231949E+01
  0.229854E+01
  0.227667E+01
  0.225043E+01
  0.222256E+01
  0.219266E+01
  0.215782E+01
  0.212018E+01
  0.207921E+01
  0.203376E+01
  0.198124E+01
  0.192356E+01
  0.185952E+01
  0.178845E+01
  0.170811E+01
  0.161549E+01
  0.151237E+01
  0.139071E+01
  0.124921E+01
  0.107957E+01
  0.859451E+00
  0.547471E+00
  0.526399E-01
 -0.954051E+00
 -0.490221E+00
  0.432463E+01
  0.966688E+00
  0.161088E+01
  0.181217E+01
  0.200343E+01
  0.248971E+01
  0.267249E+01
  0.289517E+01
  0.301309E+01
  0.290323E+01
  0.264722E+01
  0.238219E+01
  0.204443E+01
  0.186493E+01
  0.173470E+01
  0.150488E+01
  0.151585E+01
  0.146909E+01
  0.148022E+01
  0.153735E+01
  0.160401E+01
  0.163549E+01
  0.172723E+01
  0.176651E+01
  0.182902E+01
  0.171528E+01
  0.202781E+01
  0.198713E+01
  0.205627E+01
  0.220037E+01
  0.234433E+01
  0.248238E+01
  0.260982E+01
  0.275212E+01
  0.289732E+01
  0.305133E+01
  0.319916E+01
  0.333995E+01
  0.347037E+01
  0.360711E+01
  0.375524E+01
  0.391730E+01
  0.405911E+01
  0.419661E+01
  0.433046E+01
  0.446485E+01
  0.461415E+01
  0.478340E+01
  0.496020E+01
  0.508968E+01
  0.520463E+01
  0.534739E+01
  0.551601E+01
  0.569359E+01
  0.583567E+01
  0.596632E+01
  0.611118E+01
  0.627401E+01
  0.645235E+01
  0.661031E+01
  0.676116E+01
  0.691170E+01
  0.706867E+01
  0.723207E+01
  0.739702E+01
  0.754803E+01
  0.769666E+01
  0.784679E+01
  0.800586E+01
  0.816959E+01
  0.833855E+01
  0.851668E+01
  0.870379E+01
  0.888587E+01
  0.903777E+01
  0.918191E+01
  0.932739E+01
  0.949485E+01
  0.966727E+01
  0.984202E+01
  0.100152E+02
  0.101873E+02
  0.103588E+02
  0.105320E+02
  0.107065E+02
  0.108820E+02
  0.110584E+02
  0.112358E+02
  0.114136E+02
  0.115798E+02
  0.117415E+02
  0.118982E+02
  0.120637E+02
  0.122292E+02
  0.123921E+02
  0.125603E+02
  0.127272E+02
  0.128913E+02
  0.130540E+02
  0.132135E+02
  0.133717E+02
  0.135442E+02
  0.137182E+02
  0.138857E+02
  0.140391E+02
  0.141793E+02
  0.143314E+02
  0.144901E+02
  0.146454E+02
  0.147998E+02
  0.149473E+02
  0.150950E+02
  0.152438E+02
  0.153875E+02
  0.155296E+02
  0.156625E+02
  0.157976E+02
  0.159276E+02
  0.160530E+02
  0.161719E+02
  0.162862E+02
  0.163995E+02
  0.165045E+02
  0.165995E+02
  0.166886E+02
  0.167713E+02
  0.168454E+02
  0.169062E+02
  0.169560E+02
  0.169918E+02
  0.170137E+02
  0.170163E+02
  0.170006E+02
  0.169629E+02
  0.169016E+02
  0.168046E+02
  0.166754E+02
  0.165069E+02
  0.162920E+02
  0.160240E+02
  0.156892E+02
  0.152889E+02
  0.147903E+02
  0.141881E+02
  0.134605E+02
  0.125603E+02
  0.114193E+02
  0.101311E+02
  0.116867E+02
  0.213115E+00
 -0.122758E+01
  0.366186E+00
  0.414528E+00
  0.628288E+00
  0.808789E+00
  0.815615E+00
  0.890114E+00
  0.929742E+00
  0.829520E+00
  0.982534E+00
  0.105867E+01
  0.101288E+01
  0.109698E+01
  0.903002E+00
  0.857620E+00
  0.839544E+00
  0.791177E+00
  0.804690E+00
  0.822384E+00
  0.865297E+00
  0.886800E+00
  0.914174E+00
  0.935953E+00
  0.948325E+00
  0.961089E+00
  0.951806E+00
  0.101501E+01
  0.101901E+01
  0.106185E+01
  0.110901E+01
  0.115425E+01
  0.120024E+01
  0.123160E+01
  0.126292E+01
  0.130658E+01
  0.134575E+01
  0.138609E+01
  0.141122E+01
  0.144061E+01
  0.146905E+01
  0.150027E+01
  0.154057E+01
  0.157020E+01
  0.159092E+01
  0.161404E+01
  0.163661E+01
  0.165817E+01
  0.168400E+01
  0.171603E+01
  0.174209E+01
  0.175372E+01
  0.177210E+01
  0.179892E+01
  0.183021E+01
  0.184844E+01
  0.185981E+01
  0.187531E+01
  0.189746E+01
  0.192488E+01
  0.194587E+01
  0.196348E+01
  0.197956E+01
  0.200007E+01
  0.202113E+01
  0.204215E+01
  0.206127E+01
  0.207746E+01
  0.209304E+01
  0.211014E+01
  0.212742E+01
  0.214455E+01
  0.216167E+01
  0.218132E+01
  0.220083E+01
  0.221639E+01
  0.222919E+01
  0.224194E+01
  0.225833E+01
  0.227458E+01
  0.229045E+01
  0.230446E+01
  0.231792E+01
  0.233079E+01
  0.234321E+01
  0.235582E+01
  0.236840E+01
  0.238062E+01
  0.239316E+01
  0.240587E+01
  0.241821E+01
  0.243007E+01
  0.244121E+01
  0.245284E+01
  0.246423E+01
  0.247505E+01
  0.248550E+01
  0.249549E+01
  0.250477E+01
  0.251271E+01
  0.252019E+01
  0.252737E+01
  0.253542E+01
  0.254338E+01
  0.255025E+01
  0.255482E+01
  0.255884E+01
  0.256340E+01
  0.256809E+01
  0.257230E+01
  0.257475E+01
  0.257669E+01
  0.257795E+01
  0.257857E+01
  0.257883E+01
  0.257728E+01
  0.257526E+01
  0.257207E+01
  0.256820E+01
  0.256265E+01
  0.255566E+01
  0.254793E+01
  0.253902E+01
  0.252853E+01
  0.251589E+01
  0.250182E+01
  0.248641E+01
  0.246827E+01
  0.244913E+01
  0.242573E+01
  0.240067E+01
  0.237355E+01
  0.234159E+01
  0.230682E+01
  0.226871E+01
  0.222615E+01
  0.217659E+01
  0.212189E+01
  0.206084E+01
  0.199275E+01
  0.191543E+01
  0.182587E+01
  0.172578E+01
  0.160719E+01
  0.146867E+01
  0.130198E+01
  0.108557E+01
  0.782818E+00
  0.315469E+00
 -0.649277E+00
 -0.109740E+00
  0.432179E+01
  0.954473E+00
  0.159691E+01
  0.179652E+01
  0.198660E+01
  0.247204E+01
  0.265384E+01
  0.287550E+01
  0.299235E+01
  0.288167E+01
  0.262578E+01
  0.236233E+01
  0.202616E+01
  0.184823E+01
  0.171972E+01
  0.149130E+01
  0.150339E+01
  0.145757E+01
  0.146950E+01
  0.152726E+01
  0.159444E+01
  0.162632E+01
  0.171840E+01
  0.175791E+01
  0.182052E+01
  0.170686E+01
  0.201930E+01
  0.197851E+01
  0.204763E+01
  0.219165E+01
  0.233552E+01
  0.247346E+01
  0.260083E+01
  0.274307E+01
  0.288822E+01
  0.304219E+01
  0.318998E+01
  0.333073E+01
  0.346112E+01
  0.359783E+01
  0.374594E+01
  0.390795E+01
  0.404973E+01
  0.418718E+01
  0.432097E+01
  0.445529E+01
  0.460450E+01
  0.477364E+01
  0.495031E+01
  0.507964E+01
  0.519443E+01
  0.533700E+01
  0.550542E+01
  0.568277E+01
  0.582462E+01
  0.595503E+01
  0.609964E+01
  0.626224E+01
  0.644034E+01
  0.659804E+01
  0.674865E+01
  0.689894E+01
  0.705566E+01
  0.721882E+01
  0.738352E+01
  0.753429E+01
  0.768269E+01
  0.783259E+01
  0.799144E+01
  0.815497E+01
  0.832370E+01
  0.850163E+01
  0.868851E+01
  0.887037E+01
  0.902203E+01
  0.916593E+01
  0.931116E+01
  0.947839E+01
  0.965058E+01
  0.982509E+01
  0.999809E+01
  0.101700E+02
  0.103412E+02
  0.105142E+02
  0.106886E+02
  0.108638E+02
  0.110400E+02
  0.112172E+02
  0.113947E+02
  0.115607E+02
  0.117221E+02
  0.118786E+02
  0.120438E+02
  0.122090E+02
  0.123716E+02
  0.125396E+02
  0.127062E+02
  0.128701E+02
  0.130325E+02
  0.131917E+02
  0.133498E+02
  0.135220E+02
  0.136958E+02
  0.138630E+02
  0.140162E+02
  0.141560E+02
  0.143080E+02
  0.144663E+02
  0.146214E+02
  0.147756E+02
  0.149229E+02
  0.150703E+02
  0.152189E+02
  0.153625E+02
  0.155044E+02
  0.156370E+02
  0.157719E+02
  0.159017E+02
  0.160269E+02
  0.161456E+02
  0.162598E+02
  0.163729E+02
  0.164777E+02
  0.165725E+02
  0.166614E+02
  0.167440E+02
  0.168180E+02
  0.168786E+02
  0.169283E+02
  0.169641E+02
  0.169859E+02
  0.169884E+02
  0.169727E+02
  0.169350E+02
  0.168738E+02
  0.167767E+02
  0.166477E+02
  0.164792E+02
  0.162644E+02
  0.159966E+02
  0.156620E+02
  0.152619E+02
  0.147636E+02
  0.141618E+02
  0.134346E+02
  0.125350E+02
  0.113952E+02
  0.101106E+02
  0.116713E+02
  0.160775E+00
 -0.727283E-03
 -0.368169E-02
 -0.400795E-02
 -0.435408E-02
 -0.460693E-02
 -0.468262E-02
 -0.469692E-02
 -0.459069E-02
 -0.445180E-02
 -0.452452E-02
 -0.477815E-02
 -0.511101E-02
 -0.540323E-02
 -0.667751E-02
 -0.743490E-02
 -0.832319E-02
 -0.929101E-02
 -0.101752E-01
 -0.109412E-01
 -0.115111E-01
 -0.120119E-01
 -0.124653E-01
 -0.129682E-01
 -0.135669E-01
 -0.141185E-01
 -0.145489E-01
 -0.153702E-01
 -0.161885E-01
 -0.167131E-01
 -0.172579E-01
 -0.178316E-01
 -0.184268E-01
 -0.190132E-01
 -0.195654E-01
 -0.201206E-01
 -0.206555E-01
 -0.211803E-01
 -0.217012E-01
 -0.222113E-01
 -0.227445E-01
 -0.232681E-01
 -0.238182E-01
 -0.243850E-01
 -0.249901E-01
 -0.256046E-01
 -0.262509E-01
 -0.269247E-01
 -0.276191E-01
 -0.283694E-01
 -0.291297E-01
 -0.299605E-01
 -0.308054E-01
 -0.316796E-01
 -0.325980E-01
 -0.335437E-01
 -0.345486E-01
 -0.355736E-01
 -0.366163E-01
 -0.377234E-01
 -0.388295E-01
 -0.399597E-01
 -0.411367E-01
 -0.423130E-01
 -0.435241E-01
 -0.447661E-01
 -0.460156E-01
 -0.473032E-01
 -0.486129E-01
 -0.499279E-01
 -0.512805E-01
 -0.526525E-01
 -0.540372E-01
 -0.554571E-01
 -0.568979E-01
 -0.583591E-01
 -0.598515E-01
 -0.613637E-01
 -0.628968E-01
 -0.644524E-01
 -0.660248E-01
 -0.676239E-01
 -0.692406E-01
 -0.708737E-01
 -0.725473E-01
 -0.742384E-01
 -0.759496E-01
 -0.777149E-01
 -0.794993E-01
 -0.813053E-01
 -0.831724E-01
 -0.850588E-01
 -0.869631E-01
 -0.889316E-01
 -0.909169E-01
 -0.929092E-01
 -0.949669E-01
 -0.970319E-01
 -0.990922E-01
 -0.101227E+00
 -0.103356E+00
 -0.105485E+00
 -0.107696E+00
 -0.109889E+00
 -0.112106E+00
 -0.114395E+00
 -0.116647E+00
 -0.118962E+00
 -0.121303E+00
 -0.123606E+00
 -0.126017E+00
 -0.128380E+00
 -0.130783E+00
 -0.133227E+00
 -0.135623E+00
 -0.138143E+00
 -0.140589E+00
 -0.143131E+00
 -0.145655E+00
 -0.148226E+00
 -0.150823E+00
 -0.153434E+00
 -0.156093E+00
 -0.158756E+00
 -0.161462E+00
 -0.164192E+00
 -0.166922E+00
 -0.169731E+00
 -0.172460E+00
 -0.175308E+00
 -0.178114E+00
 -0.180898E+00
 -0.183773E+00
 -0.186642E+00
 -0.189494E+00
 -0.192387E+00
 -0.195344E+00
 -0.198328E+00
 -0.201316E+00
 -0.204300E+00
 -0.207323E+00
 -0.210388E+00
 -0.213412E+00
 -0.216481E+00
 -0.219463E+00
 -0.222407E+00
 -0.226118E+00
 -0.235347E+00
 -0.262829E+00
 -0.304774E+00
 -0.380481E+00
  0.284574E-02
  0.122145E-01
  0.139747E-01
  0.156511E-01
  0.168345E-01
  0.176679E-01
  0.186491E-01
  0.196726E-01
  0.207403E-01
  0.215583E-01
  0.214411E-01
  0.198629E-01
  0.182637E-01
  0.166970E-01
  0.149748E-01
  0.135818E-01
  0.124592E-01
  0.115199E-01
  0.107223E-01
  0.100815E-01
  0.956284E-02
  0.916977E-02
  0.882928E-02
  0.859917E-02
  0.849825E-02
  0.842841E-02
  0.851123E-02
  0.862012E-02
  0.864378E-02