 Title= "ADflow Lift Distribution Data"
Variables = "eta" "CoordinateX" "CoordinateY" "CoordinateZ" "Lift" "Drag" "Normalized Lift" "Normalized Drag" "CL" "CD" "CLp" "CDp" "CLv" "CDv" "Ellptical" "thickness" "twist" "chord" 
Zone T= "LiftDist_01 allWalls: : z normal"
 I=          150
 DATAPACKING=BLOCK
  0.000000E+00
  0.671141E-02
  0.134228E-01
  0.201342E-01
  0.268456E-01
  0.335570E-01
  0.402685E-01
  0.469799E-01
  0.536913E-01
  0.604027E-01
  0.671141E-01
  0.738255E-01
  0.805369E-01
  0.872483E-01
  0.939597E-01
  0.100671E+00
  0.107383E+00
  0.114094E+00
  0.120805E+00
  0.127517E+00
  0.134228E+00
  0.140940E+00
  0.147651E+00
  0.154362E+00
  0.161074E+00
  0.167785E+00
  0.174497E+00
  0.181208E+00
  0.187919E+00
  0.194631E+00
  0.201342E+00
  0.208054E+00
  0.214765E+00
  0.221477E+00
  0.228188E+00
  0.234899E+00
  0.241611E+00
  0.248322E+00
  0.255034E+00
  0.261745E+00
  0.268456E+00
  0.275168E+00
  0.281879E+00
  0.288591E+00
  0.295302E+00
  0.302013E+00
  0.308725E+00
  0.315436E+00
  0.322148E+00
  0.328859E+00
  0.335570E+00
  0.342282E+00
  0.348993E+00
  0.355705E+00
  0.362416E+00
  0.369128E+00
  0.375839E+00
  0.382550E+00
  0.389262E+00
  0.395973E+00
  0.402685E+00
  0.409396E+00
  0.416107E+00
  0.422819E+00
  0.429530E+00
  0.436242E+00
  0.442953E+00
  0.449664E+00
  0.456376E+00
  0.463087E+00
  0.469799E+00
  0.476510E+00
  0.483221E+00
  0.489933E+00
  0.496644E+00
  0.503356E+00
  0.510067E+00
  0.516779E+00
  0.523490E+00
  0.530201E+00
  0.536913E+00
  0.543624E+00
  0.550336E+00
  0.557047E+00
  0.563758E+00
  0.570470E+00
  0.577181E+00
  0.583893E+00
  0.590604E+00
  0.597315E+00
  0.604027E+00
  0.610738E+00
  0.617450E+00
  0.624161E+00
  0.630872E+00
  0.637584E+00
  0.644295E+00
  0.651007E+00
  0.657718E+00
  0.664430E+00
  0.671141E+00
  0.677852E+00
  0.684564E+00
  0.691275E+00
  0.697987E+00
  0.704698E+00
  0.711409E+00
  0.718121E+00
  0.724832E+00
  0.731544E+00
  0.738255E+00
  0.744966E+00
  0.751678E+00
  0.758389E+00
  0.765101E+00
  0.771812E+00
  0.778523E+00
  0.785235E+00
  0.791946E+00
  0.798658E+00
  0.805369E+00
  0.812081E+00
  0.818792E+00
  0.825503E+00
  0.832215E+00
  0.838926E+00
  0.845638E+00
  0.852349E+00
  0.859060E+00
  0.865772E+00
  0.872483E+00
  0.879195E+00
  0.885906E+00
  0.892617E+00
  0.899329E+00
  0.906040E+00
  0.912752E+00
  0.919463E+00
  0.926174E+00
  0.932886E+00
  0.939597E+00
  0.946309E+00
  0.953020E+00
  0.959732E+00
  0.966443E+00
  0.973154E+00
  0.979866E+00
  0.986577E+00
  0.993289E+00
  0.100000E+01
  0.000000E+00
  0.000000E+00
  0.000000E+00
  0.000000E+00
  0.000000E+00
  0.000000E+00
  0.000000E+00
  0.000000E+00
  0.000000E+00
  0.000000E+00
  0.000000E+00
  0.000000E+00
  0.000000E+00
  0.000000E+00
  0.000000E+00
  0.000000E+00
  0.000000E+00
  0.000000E+00
  0.000000E+00
  0.000000E+00
  0.000000E+00
  0.000000E+00
  0.000000E+00
  0.000000E+00
  0.000000E+00
  0.000000E+00
  0.000000E+00
  0.000000E+00
  0.000000E+00
  0.000000E+00
  0.000000E+00
  0.000000E+00
  0.000000E+00
  0.000000E+00
  0.000000E+00
  0.000000E+00
  0.000000E+00
  0.000000E+00
  0.000000E+00
  0.000000E+00
  0.000000E+00
  0.000000E+00
  0.000000E+00
  0.000000E+00
  0.000000E+00
  0.000000E+00
  0.000000E+00
  0.000000E+00
  0.000000E+00
  0.000000E+00
  0.000000E+00
  0.000000E+00
  0.000000E+00
  0.000000E+00
  0.000000E+00
  0.000000E+00
  0.000000E+00
  0.000000E+00
  0.000000E+00
  0.000000E+00
  0.000000E+00
  0.000000E+00
  0.000000E+00
  0.000000E+00
  0.000000E+00
  0.000000E+00
  0.000000E+00
  0.000000E+00
  0.000000E+00
  0.000000E+00
  0.000000E+00
  0.000000E+00
  0.000000E+00
  0.000000E+00
  0.000000E+00
  0.000000E+00
  0.000000E+00
  0.000000E+00
  0.000000E+00
  0.000000E+00
  0.000000E+00
  0.000000E+00
  0.000000E+00
  0.000000E+00
  0.000000E+00
  0.000000E+00
  0.000000E+00
  0.000000E+00
  0.000000E+00
  0.000000E+00
  0.000000E+00
  0.000000E+00
  0.000000E+00
  0.000000E+00
  0.000000E+00
  0.000000E+00
  0.000000E+00
  0.000000E+00
  0.000000E+00
  0.000000E+00
  0.000000E+00
  0.000000E+00
  0.000000E+00
  0.000000E+00
  0.000000E+00
  0.000000E+00
  0.000000E+00
  0.000000E+00
  0.000000E+00
  0.000000E+00
  0.000000E+00
  0.000000E+00
  0.000000E+00
  0.000000E+00
  0.000000E+00
  0.000000E+00
  0.000000E+00
  0.000000E+00
  0.000000E+00
  0.000000E+00
  0.000000E+00
  0.000000E+00
  0.000000E+00
  0.000000E+00
  0.000000E+00
  0.000000E+00
  0.000000E+00
  0.000000E+00
  0.000000E+00
  0.000000E+00
  0.000000E+00
  0.000000E+00
  0.000000E+00
  0.000000E+00
  0.000000E+00
  0.000000E+00
  0.000000E+00
  0.000000E+00
  0.000000E+00
  0.000000E+00
  0.000000E+00
  0.000000E+00
  0.000000E+00
  0.000000E+00
  0.000000E+00
  0.000000E+00
  0.000000E+00
  0.000000E+00
  0.000000E+00
  0.000000E+00
  0.000000E+00
  0.000000E+00
  0.000000E+00
  0.000000E+00
  0.000000E+00
  0.000000E+00
  0.000000E+00
  0.000000E+00
  0.000000E+00
  0.000000E+00
  0.000000E+00
  0.000000E+00
  0.000000E+00
  0.000000E+00
  0.000000E+00
  0.000000E+00
  0.000000E+00
  0.000000E+00
  0.000000E+00
  0.000000E+00
  0.000000E+00
  0.000000E+00
  0.000000E+00
  0.000000E+00
  0.000000E+00
  0.000000E+00
  0.000000E+00
  0.000000E+00
  0.000000E+00
  0.000000E+00
  0.000000E+00
  0.000000E+00
  0.000000E+00
  0.000000E+00
  0.000000E+00
  0.000000E+00
  0.000000E+00
  0.000000E+00
  0.000000E+00
  0.000000E+00
  0.000000E+00
  0.000000E+00
  0.000000E+00
  0.000000E+00
  0.000000E+00
  0.000000E+00
  0.000000E+00
  0.000000E+00
  0.000000E+00
  0.000000E+00
  0.000000E+00
  0.000000E+00
  0.000000E+00
  0.000000E+00
  0.000000E+00
  0.000000E+00
  0.000000E+00
  0.000000E+00
  0.000000E+00
  0.000000E+00
  0.000000E+00
  0.000000E+00
  0.000000E+00
  0.000000E+00
  0.000000E+00
  0.000000E+00
  0.000000E+00
  0.000000E+00
  0.000000E+00
  0.000000E+00
  0.000000E+00
  0.000000E+00
  0.000000E+00
  0.000000E+00
  0.000000E+00
  0.000000E+00
  0.000000E+00
  0.000000E+00
  0.000000E+00
  0.000000E+00
  0.000000E+00
  0.000000E+00
  0.000000E+00
  0.000000E+00
  0.000000E+00
  0.000000E+00
  0.000000E+00
  0.000000E+00
  0.000000E+00
  0.000000E+00
  0.000000E+00
  0.000000E+00
  0.000000E+00
  0.000000E+00
  0.000000E+00
  0.000000E+00
  0.000000E+00
  0.000000E+00
  0.000000E+00
  0.000000E+00
  0.000000E+00
  0.000000E+00
  0.000000E+00
  0.000000E+00
  0.000000E+00
  0.000000E+00
  0.000000E+00
  0.000000E+00
  0.000000E+00
  0.000000E+00
  0.000000E+00
  0.000000E+00
  0.000000E+00
  0.000000E+00
  0.000000E+00
  0.000000E+00
  0.000000E+00
  0.000000E+00
  0.000000E+00
  0.000000E+00
  0.000000E+00
  0.000000E+00
  0.000000E+00
  0.000000E+00
  0.000000E+00
  0.000000E+00
  0.000000E+00
  0.000000E+00
  0.000000E+00
  0.000000E+00
  0.000000E+00
  0.000000E+00
  0.000000E+00
  0.000000E+00
  0.000000E+00
  0.000000E+00
  0.000000E+00
  0.000000E+00
  0.000000E+00
  0.000000E+00
  0.000000E+00
  0.000000E+00
  0.000000E+00
  0.000000E+00
  0.000000E+00
  0.000000E+00
  0.000000E+00
  0.000000E+00
  0.000000E+00
  0.000000E+00
  0.508000E+00
  0.538474E+00
  0.568949E+00
  0.599423E+00
  0.629898E+00
  0.660372E+00
  0.690846E+00
  0.721321E+00
  0.751795E+00
  0.782269E+00
  0.812744E+00
  0.843218E+00
  0.873693E+00
  0.904167E+00
  0.934641E+00
  0.965116E+00
  0.995590E+00
  0.102606E+01
  0.105654E+01
  0.108701E+01
  0.111749E+01
  0.114796E+01
  0.117844E+01
  0.120891E+01
  0.123939E+01
  0.126986E+01
  0.130033E+01
  0.133081E+01
  0.136128E+01
  0.139176E+01
  0.142223E+01
  0.145271E+01
  0.148318E+01
  0.151365E+01
  0.154413E+01
  0.157460E+01
  0.160508E+01
  0.163555E+01
  0.166603E+01
  0.169650E+01
  0.172698E+01
  0.175745E+01
  0.178792E+01
  0.181840E+01
  0.184887E+01
  0.187935E+01
  0.190982E+01
  0.194030E+01
  0.197077E+01
  0.200124E+01
  0.203172E+01
  0.206219E+01
  0.209267E+01
  0.212314E+01
  0.215362E+01
  0.218409E+01
  0.221457E+01
  0.224504E+01
  0.227551E+01
  0.230599E+01
  0.233646E+01
  0.236694E+01
  0.239741E+01
  0.242789E+01
  0.245836E+01
  0.248883E+01
  0.251931E+01
  0.254978E+01
  0.258026E+01
  0.261073E+01
  0.264121E+01
  0.267168E+01
  0.270216E+01
  0.273263E+01
  0.276310E+01
  0.279358E+01
  0.282405E+01
  0.285453E+01
  0.288500E+01
  0.291548E+01
  0.294595E+01
  0.297642E+01
  0.300690E+01
  0.303737E+01
  0.306785E+01
  0.309832E+01
  0.312880E+01
  0.315927E+01
  0.318975E+01
  0.322022E+01
  0.325069E+01
  0.328117E+01
  0.331164E+01
  0.334212E+01
  0.337259E+01
  0.340307E+01
  0.343354E+01
  0.346401E+01
  0.349449E+01
  0.352496E+01
  0.355544E+01
  0.358591E+01
  0.361639E+01
  0.364686E+01
  0.367734E+01
  0.370781E+01
  0.373828E+01
  0.376876E+01
  0.379923E+01
  0.382971E+01
  0.386018E+01
  0.389066E+01
  0.392113E+01
  0.395160E+01
  0.398208E+01
  0.401255E+01
  0.404303E+01
  0.407350E+01
  0.410398E+01
  0.413445E+01
  0.416493E+01
  0.419540E+01
  0.422587E+01
  0.425635E+01
  0.428682E+01
  0.431730E+01
  0.434777E+01
  0.437825E+01
  0.440872E+01
  0.443919E+01
  0.446967E+01
  0.450014E+01
  0.453062E+01
  0.456109E+01
  0.459157E+01
  0.462204E+01
  0.465252E+01
  0.468299E+01
  0.471346E+01
  0.474394E+01
  0.477441E+01
  0.480489E+01
  0.483536E+01
  0.486584E+01
  0.489631E+01
  0.492678E+01
  0.495726E+01
  0.498773E+01
  0.501821E+01
  0.504868E+01
 -0.790531E+01
  0.361883E+01
  0.442147E+01
  0.699447E+01
  0.112758E+02
  0.214028E+02
  0.342161E+02
  0.499934E+02
  0.648677E+02
  0.784683E+02
  0.898693E+02
  0.985758E+02
  0.105382E+03
  0.110356E+03
  0.116893E+03
  0.123697E+03
  0.131674E+03
  0.141871E+03
  0.154066E+03
  0.166901E+03
  0.177838E+03
  0.188944E+03
  0.199072E+03
  0.207564E+03
  0.215208E+03
  0.216871E+03
  0.222080E+03
  0.212465E+03
  0.201821E+03
  0.193819E+03
  0.186268E+03
  0.178381E+03
  0.170377E+03
  0.162407E+03
  0.154526E+03
  0.147466E+03
  0.140937E+03
  0.134602E+03
  0.128851E+03
  0.123455E+03
  0.118542E+03
  0.113738E+03
  0.109159E+03
  0.104560E+03
  0.100108E+03
  0.956355E+02
  0.912395E+02
  0.871177E+02
  0.831369E+02
  0.795419E+02
  0.758319E+02
  0.724134E+02
  0.693079E+02
  0.664546E+02
  0.638276E+02
  0.612229E+02
  0.588732E+02
  0.568283E+02
  0.552082E+02
  0.537546E+02
  0.524010E+02
  0.511456E+02
  0.502161E+02
  0.493996E+02
  0.486773E+02
  0.481198E+02
  0.475126E+02
  0.469332E+02
  0.464290E+02
  0.459779E+02
  0.455424E+02
  0.451171E+02
  0.449004E+02
  0.447550E+02
  0.446344E+02
  0.443201E+02
  0.439624E+02
  0.436736E+02
  0.433796E+02
  0.430679E+02
  0.426536E+02
  0.422167E+02
  0.417498E+02
  0.411879E+02
  0.406315E+02
  0.400662E+02
  0.394476E+02
  0.388519E+02
  0.382797E+02
  0.377297E+02
  0.371332E+02
  0.364504E+02
  0.358021E+02
  0.351453E+02
  0.344743E+02
  0.337686E+02
  0.330554E+02
  0.323371E+02
  0.315735E+02
  0.307959E+02
  0.300064E+02
  0.292088E+02
  0.285009E+02
  0.278175E+02
  0.271291E+02
  0.263948E+02
  0.256608E+02
  0.249346E+02
  0.242399E+02
  0.235169E+02
  0.228066E+02
  0.220898E+02
  0.213748E+02
  0.206937E+02
  0.200009E+02
  0.193293E+02
  0.186505E+02
  0.179969E+02
  0.173331E+02
  0.166607E+02
  0.159954E+02
  0.153156E+02
  0.146263E+02
  0.139252E+02
  0.132030E+02
  0.124601E+02
  0.116764E+02
  0.108923E+02
  0.100322E+02
  0.915550E+01
  0.825461E+01
  0.726635E+01
  0.623201E+01
  0.515179E+01
  0.402180E+01
  0.278493E+01
  0.144406E+01
 -0.229982E-02
 -0.158383E+01
 -0.332328E+01
 -0.522709E+01
 -0.725207E+01
 -0.937309E+01
 -0.112893E+02
 -0.128485E+02
 -0.147311E+02
 -0.173050E+02
 -0.190220E+02
 -0.184248E+02
 -0.798105E-04
  0.141259E+03
  0.356482E+02
  0.538695E+02
  0.581545E+02
  0.647158E+02
  0.750045E+02
  0.782088E+02
  0.839797E+02
  0.878559E+02
  0.912002E+02
  0.984777E+02
  0.115617E+03
  0.131995E+03
  0.161140E+03
  0.186374E+03
  0.204778E+03
  0.235756E+03
  0.260390E+03
  0.285524E+03
  0.312881E+03
  0.338917E+03
  0.364306E+03
  0.392607E+03
  0.417144E+03
  0.444582E+03
  0.448078E+03
  0.498519E+03
  0.490007E+03
  0.480432E+03
  0.481861E+03
  0.482783E+03
  0.479162E+03
  0.475974E+03
  0.472923E+03
  0.464019E+03
  0.457641E+03
  0.449994E+03
  0.445209E+03
  0.438811E+03
  0.434030E+03
  0.430530E+03
  0.423875E+03
  0.417635E+03
  0.414307E+03
  0.409953E+03
  0.405670E+03
  0.403136E+03
  0.399726E+03
  0.392792E+03
  0.385979E+03
  0.385963E+03
  0.385421E+03
  0.382357E+03
  0.377300E+03
  0.373175E+03
  0.372230E+03
  0.371870E+03
  0.371038E+03
  0.368384E+03
  0.366796E+03
  0.366363E+03
  0.366986E+03
  0.367588E+03
  0.368314E+03
  0.368957E+03
  0.369145E+03
  0.371129E+03
  0.373631E+03
  0.375940E+03
  0.377910E+03
  0.380372E+03
  0.384154E+03
  0.386391E+03
  0.388130E+03
  0.389608E+03
  0.393560E+03
  0.398036E+03
  0.401555E+03
  0.404737E+03
  0.407785E+03
  0.410976E+03
  0.413805E+03
  0.416400E+03
  0.419494E+03
  0.422056E+03
  0.424106E+03
  0.426542E+03
  0.428648E+03
  0.430357E+03
  0.431412E+03
  0.432727E+03
  0.434384E+03
  0.435058E+03
  0.435724E+03
  0.436504E+03
  0.436705E+03
  0.436629E+03
  0.436284E+03
  0.435672E+03
  0.434984E+03
  0.434302E+03
  0.434121E+03
  0.432760E+03
  0.430942E+03
  0.429046E+03
  0.428615E+03
  0.427796E+03
  0.426583E+03
  0.425006E+03
  0.423484E+03
  0.421931E+03
  0.420452E+03
  0.418953E+03
  0.417203E+03
  0.415514E+03
  0.413914E+03
  0.412342E+03
  0.410655E+03
  0.408828E+03
  0.407073E+03
  0.405428E+03
  0.403571E+03
  0.401426E+03
  0.399316E+03
  0.397177E+03
  0.394787E+03
  0.392185E+03
  0.389358E+03
  0.386231E+03
  0.382768E+03
  0.378939E+03
  0.374549E+03
  0.369698E+03
  0.364033E+03
  0.357638E+03
  0.350288E+03
  0.341621E+03
  0.331210E+03
  0.318762E+03
  0.303471E+03
  0.284865E+03
  0.262440E+03
  0.235042E+03
  0.203720E+03
  0.171657E+03
  0.145813E+03
  0.129182E+03
  0.110338E+03
  0.674388E+02
 -0.345656E-04
 -0.132796E+00
  0.607901E-01
  0.742730E-01
  0.117495E+00
  0.189414E+00
  0.359531E+00
  0.574771E+00
  0.839803E+00
  0.108967E+01
  0.131813E+01
  0.150965E+01
  0.165590E+01
  0.177024E+01
  0.185378E+01
  0.196361E+01
  0.207790E+01
  0.221190E+01
  0.238319E+01
  0.258804E+01
  0.280365E+01
  0.298736E+01
  0.317394E+01
  0.334407E+01
  0.348672E+01
  0.361512E+01
  0.364306E+01
  0.373056E+01
  0.356905E+01
  0.339025E+01
  0.325582E+01
  0.312897E+01
  0.299650E+01
  0.286204E+01
  0.272816E+01
  0.259577E+01
  0.247718E+01
  0.236750E+01
  0.226108E+01
  0.216447E+01
  0.207383E+01
  0.199131E+01
  0.191061E+01
  0.183368E+01
  0.175643E+01
  0.168164E+01
  0.160651E+01
  0.153267E+01
  0.146343E+01
  0.139656E+01
  0.133617E+01
  0.127384E+01
  0.121642E+01
  0.116425E+01
  0.111632E+01
  0.107219E+01
  0.102844E+01
  0.988967E+00
  0.954617E+00
  0.927402E+00
  0.902984E+00
  0.880245E+00
  0.859158E+00
  0.843544E+00
  0.829827E+00
  0.817694E+00
  0.808329E+00
  0.798129E+00
  0.788396E+00
  0.779928E+00
  0.772349E+00
  0.765033E+00
  0.757889E+00
  0.754249E+00
  0.751807E+00
  0.749781E+00
  0.744502E+00
  0.738493E+00
  0.733642E+00
  0.728703E+00
  0.723467E+00
  0.716506E+00
  0.709167E+00
  0.701325E+00
  0.691885E+00
  0.682539E+00
  0.673043E+00
  0.662651E+00
  0.652644E+00
  0.643033E+00
  0.633793E+00
  0.623773E+00
  0.612304E+00
  0.601413E+00
  0.590380E+00
  0.579109E+00
  0.567254E+00
  0.555274E+00
  0.543207E+00
  0.530380E+00
  0.517317E+00
  0.504055E+00
  0.490657E+00
  0.478767E+00
  0.467286E+00
  0.455722E+00
  0.443387E+00
  0.431058E+00
  0.418858E+00
  0.407189E+00
  0.395043E+00
  0.383111E+00
  0.371071E+00
  0.359060E+00
  0.347619E+00
  0.335981E+00
  0.324699E+00
  0.313296E+00
  0.302317E+00
  0.291167E+00
  0.279871E+00
  0.268695E+00
  0.257276E+00
  0.245696E+00
  0.233919E+00
  0.221788E+00
  0.209308E+00
  0.196143E+00
  0.182972E+00
  0.168524E+00
  0.153797E+00
  0.138663E+00
  0.122062E+00
  0.104687E+00
  0.865411E-01
  0.675592E-01
  0.467819E-01
  0.242577E-01
 -0.386330E-04
 -0.266056E-01
 -0.558254E-01
 -0.878062E-01
 -0.121822E+00
 -0.157452E+00
 -0.189642E+00
 -0.215833E+00
 -0.247457E+00
 -0.290695E+00
 -0.319536E+00
 -0.309505E+00
 -0.134068E-05
  0.395641E+00
  0.998446E-01
  0.150879E+00
  0.162881E+00
  0.181258E+00
  0.210075E+00
  0.219049E+00
  0.235213E+00
  0.246069E+00
  0.255436E+00
  0.275819E+00
  0.323823E+00
  0.369696E+00
  0.451325E+00
  0.522002E+00
  0.573547E+00
  0.660311E+00
  0.729309E+00
  0.799704E+00
  0.876325E+00
  0.949248E+00
  0.102036E+01
  0.109963E+01
  0.116835E+01
  0.124520E+01
  0.125499E+01
  0.139627E+01
  0.137242E+01
  0.134561E+01
  0.134961E+01
  0.135219E+01
  0.134205E+01
  0.133312E+01
  0.132458E+01
  0.129964E+01
  0.128177E+01
  0.126036E+01
  0.124695E+01
  0.122903E+01
  0.121564E+01
  0.120584E+01
  0.118720E+01
  0.116972E+01
  0.116040E+01
  0.114821E+01
  0.113621E+01
  0.112911E+01
  0.111956E+01
  0.110014E+01
  0.108106E+01
  0.108101E+01
  0.107950E+01
  0.107092E+01
  0.105675E+01
  0.104520E+01
  0.104255E+01
  0.104155E+01
  0.103921E+01
  0.103178E+01
  0.102733E+01
  0.102612E+01
  0.102786E+01
  0.102955E+01
  0.103158E+01
  0.103339E+01
  0.103391E+01
  0.103947E+01
  0.104648E+01
  0.105294E+01
  0.105846E+01
  0.106536E+01
  0.107595E+01
  0.108221E+01
  0.108709E+01
  0.109123E+01
  0.110229E+01
  0.111483E+01
  0.112469E+01
  0.113360E+01
  0.114214E+01
  0.115107E+01
  0.115900E+01
  0.116626E+01
  0.117493E+01
  0.118211E+01
  0.118785E+01
  0.119467E+01
  0.120057E+01
  0.120536E+01
  0.120831E+01
  0.121199E+01
  0.121664E+01
  0.121852E+01
  0.122039E+01
  0.122257E+01
  0.122314E+01
  0.122292E+01
  0.122196E+01
  0.122024E+01
  0.121831E+01
  0.121640E+01
  0.121590E+01
  0.121209E+01
  0.120699E+01
  0.120168E+01
  0.120048E+01
  0.119818E+01
  0.119479E+01
  0.119037E+01
  0.118610E+01
  0.118176E+01
  0.117761E+01
  0.117341E+01
  0.116851E+01
  0.116378E+01
  0.115930E+01
  0.115490E+01
  0.115017E+01
  0.114506E+01
  0.114014E+01
  0.113553E+01
  0.113033E+01
  0.112432E+01
  0.111842E+01
  0.111243E+01
  0.110573E+01
  0.109844E+01
  0.109053E+01
  0.108177E+01
  0.107207E+01
  0.106134E+01
  0.104905E+01
  0.103546E+01
  0.101959E+01
  0.100168E+01
  0.981097E+00
  0.956823E+00
  0.927664E+00
  0.892798E+00
  0.849970E+00
  0.797858E+00
  0.735049E+00
  0.658311E+00
  0.570586E+00
  0.480781E+00
  0.408397E+00
  0.361817E+00
  0.309037E+00
  0.188885E+00
 -0.968122E-07
 -0.147617E+00
  0.678502E-01
  0.832425E-01
  0.132234E+00
  0.214049E+00
  0.409362E+00
  0.662171E+00
  0.981304E+00
  0.129804E+01
  0.158522E+01
  0.177403E+01
  0.183554E+01
  0.181275E+01
  0.172164E+01
  0.164636E+01
  0.156820E+01
  0.150246E+01
  0.146052E+01
  0.143603E+01
  0.141446E+01
  0.138205E+01
  0.135604E+01
  0.133013E+01
  0.130487E+01
  0.128572E+01
  0.124565E+01
  0.124838E+01
  0.118934E+01
  0.113479E+01
  0.109466E+01
  0.105669E+01
  0.101641E+01
  0.975036E+00
  0.933400E+00
  0.891869E+00
  0.854764E+00
  0.820532E+00
  0.787171E+00
  0.756976E+00
  0.728567E+00
  0.702776E+00
  0.677361E+00
  0.653077E+00
  0.628416E+00
  0.604398E+00
  0.580019E+00
  0.555870E+00
  0.533162E+00
  0.511110E+00
  0.491254E+00
  0.470488E+00
  0.451340E+00
  0.433964E+00
  0.418017E+00
  0.403376E+00
  0.388725E+00
  0.375566E+00
  0.364237E+00
  0.355528E+00
  0.347856E+00
  0.340757E+00
  0.334230E+00
  0.329795E+00
  0.326057E+00
  0.322908E+00
  0.320823E+00
  0.318380E+00
  0.316098E+00
  0.314300E+00
  0.312841E+00
  0.311476E+00
  0.310165E+00
  0.310278E+00
  0.310898E+00
  0.311708E+00
  0.311165E+00
  0.310309E+00
  0.309930E+00
  0.309510E+00
  0.308956E+00
  0.307657E+00
  0.306178E+00
  0.304463E+00
  0.302024E+00
  0.299597E+00
  0.297075E+00
  0.294122E+00
  0.291303E+00
  0.288630E+00
  0.286120E+00
  0.283224E+00
  0.279633E+00
  0.276260E+00
  0.272780E+00
  0.269147E+00
  0.265198E+00
  0.261143E+00
  0.256998E+00
  0.252441E+00
  0.247716E+00
  0.242836E+00
  0.237830E+00
  0.233496E+00
  0.229315E+00
  0.225037E+00
  0.220323E+00
  0.215552E+00
  0.210785E+00
  0.206226E+00
  0.201365E+00
  0.196550E+00
  0.191617E+00
  0.186633E+00
  0.181884E+00
  0.176971E+00
  0.172180E+00
  0.167255E+00
  0.162488E+00
  0.157562E+00
  0.152486E+00
  0.147406E+00
  0.142124E+00
  0.136683E+00
  0.131061E+00
  0.125158E+00
  0.118971E+00
  0.112302E+00
  0.105530E+00
  0.979175E-01
  0.900269E-01
  0.817783E-01
  0.725326E-01
  0.626823E-01
  0.522149E-01
  0.410757E-01
  0.286613E-01
  0.149765E-01
 -0.240375E-04
 -0.166839E-01
 -0.352849E-01
 -0.559512E-01
 -0.782665E-01
 -0.101998E+00
 -0.123880E+00
 -0.142182E+00
 -0.164417E+00
 -0.194820E+00
 -0.216023E+00
 -0.211089E+00
 -0.832414E-01
  0.263775E+01
  0.668376E+00
  0.101419E+01
  0.109944E+01
  0.122850E+01
  0.143457E+01
  0.151355E+01
  0.164841E+01
  0.175805E+01
  0.184243E+01
  0.194397E+01
  0.215285E+01
  0.227053E+01
  0.251393E+01
  0.262495E+01
  0.259612E+01
  0.269007E+01
  0.268063E+01
  0.266134E+01
  0.265161E+01
  0.263387E+01
  0.261460E+01
  0.262326E+01
  0.262242E+01
  0.265608E+01
  0.257364E+01
  0.280234E+01
  0.274295E+01
  0.270135E+01
  0.272149E+01
  0.273881E+01
  0.273023E+01
  0.272391E+01
  0.271802E+01
  0.267815E+01
  0.265264E+01
  0.261985E+01
  0.260365E+01
  0.257793E+01
  0.256142E+01
  0.255239E+01
  0.252435E+01
  0.249863E+01
  0.249001E+01
  0.247508E+01
  0.246035E+01
  0.245608E+01
  0.244633E+01
  0.241481E+01
  0.238382E+01
  0.239465E+01
  0.240226E+01
  0.239409E+01
  0.237331E+01
  0.235838E+01
  0.236342E+01
  0.237225E+01
  0.237814E+01
  0.237231E+01
  0.237361E+01
  0.238241E+01
  0.239821E+01
  0.241414E+01
  0.243102E+01
  0.244753E+01
  0.246115E+01
  0.248693E+01
  0.251643E+01
  0.254492E+01
  0.257137E+01
  0.260146E+01
  0.264093E+01
  0.267011E+01
  0.269621E+01
  0.272086E+01
  0.276313E+01
  0.280954E+01
  0.284964E+01
  0.288776E+01
  0.292533E+01
  0.296434E+01
  0.300113E+01
  0.303662E+01
  0.307608E+01
  0.311203E+01
  0.314458E+01
  0.318030E+01
  0.321391E+01
  0.324490E+01
  0.327158E+01
  0.330052E+01
  0.333242E+01
  0.335705E+01
  0.338187E+01
  0.340786E+01
  0.342962E+01
  0.344944E+01
  0.346735E+01
  0.348335E+01
  0.349892E+01
  0.351473E+01
  0.353479E+01
  0.354542E+01
  0.355249E+01
  0.355896E+01
  0.357775E+01
  0.359351E+01
  0.360613E+01
  0.361583E+01
  0.362610E+01
  0.363626E+01
  0.364719E+01
  0.365807E+01
  0.366693E+01
  0.367652E+01
  0.368703E+01
  0.369783E+01
  0.370767E+01
  0.371634E+01
  0.372571E+01
  0.373625E+01
  0.374500E+01
  0.375135E+01
  0.375828E+01
  0.376504E+01
  0.376950E+01
  0.377198E+01
  0.377232E+01
  0.376973E+01
  0.376379E+01
  0.375414E+01
  0.373874E+01
  0.371847E+01
  0.368958E+01
  0.365265E+01
  0.360502E+01
  0.354300E+01
  0.346177E+01
  0.335781E+01
  0.322210E+01
  0.304922E+01
  0.283233E+01
  0.255772E+01
  0.223546E+01
  0.189956E+01
  0.162745E+01
  0.145433E+01
  0.125305E+01
  0.772630E+00
 -0.360514E-01
 -0.147743E+00
  0.685040E-01
  0.841367E-01
  0.133368E+00
  0.215376E+00
  0.410793E+00
  0.663519E+00
  0.982400E+00
  0.129881E+01
  0.158579E+01
  0.177466E+01
  0.183623E+01
  0.181319E+01
  0.172141E+01
  0.164541E+01
  0.156688E+01
  0.150102E+01
  0.145900E+01
  0.143442E+01
  0.141279E+01
  0.138038E+01
  0.135445E+01
  0.132868E+01
  0.130361E+01
  0.128467E+01
  0.124485E+01
  0.124789E+01
  0.118913E+01
  0.113479E+01
  0.109483E+01
  0.105701E+01
  0.101686E+01
  0.975607E+00
  0.934066E+00
  0.892607E+00
  0.855554E+00
  0.821357E+00
  0.788023E+00
  0.757849E+00
  0.729462E+00
  0.703692E+00
  0.678300E+00
  0.654047E+00
  0.629426E+00
  0.605456E+00
  0.581135E+00
  0.557050E+00
  0.534413E+00
  0.512439E+00
  0.492667E+00
  0.471997E+00
  0.452946E+00
  0.435669E+00
  0.419822E+00
  0.405283E+00
  0.390736E+00
  0.377678E+00
  0.366448E+00
  0.357837E+00
  0.350255E+00
  0.343243E+00
  0.336803E+00
  0.332447E+00
  0.328785E+00
  0.325710E+00
  0.323693E+00
  0.321317E+00
  0.319099E+00
  0.317360E+00
  0.315956E+00
  0.314643E+00
  0.313381E+00
  0.313540E+00
  0.314203E+00
  0.315054E+00
  0.314551E+00
  0.313734E+00
  0.313395E+00
  0.313012E+00
  0.312496E+00
  0.311233E+00
  0.309791E+00
  0.308114E+00
  0.305713E+00
  0.303325E+00
  0.300844E+00
  0.297934E+00
  0.295160E+00
  0.292533E+00
  0.290075E+00
  0.287232E+00
  0.283695E+00
  0.280383E+00
  0.276964E+00
  0.273396E+00
  0.269516E+00
  0.265531E+00
  0.261457E+00
  0.256975E+00
  0.252326E+00
  0.247522E+00
  0.242595E+00
  0.238340E+00
  0.234238E+00
  0.230042E+00
  0.225411E+00
  0.220725E+00
  0.216045E+00
  0.211572E+00
  0.206801E+00
  0.202076E+00
  0.197234E+00
  0.192344E+00
  0.187686E+00
  0.182869E+00
  0.178173E+00
  0.173347E+00
  0.168680E+00
  0.163856E+00
  0.158885E+00
  0.153913E+00
  0.148741E+00
  0.143415E+00
  0.137911E+00
  0.132132E+00
  0.126073E+00
  0.119540E+00
  0.112908E+00
  0.105449E+00
  0.977186E-01
  0.896377E-01
  0.805769E-01
  0.709220E-01
  0.606609E-01
  0.497424E-01
  0.375689E-01
  0.241449E-01
  0.942558E-02
 -0.693079E-02
 -0.251998E-01
 -0.455023E-01
 -0.674287E-01
 -0.907528E-01
 -0.112272E+00
 -0.130246E+00
 -0.151864E+00
 -0.180955E+00
 -0.200561E+00
 -0.191731E+00
 -0.146931E-01
  0.263228E+01
  0.657560E+00
  0.100030E+01
  0.108362E+01
  0.121218E+01
  0.141830E+01
  0.149718E+01
  0.163167E+01
  0.174037E+01
  0.182325E+01
  0.192348E+01
  0.213296E+01
  0.225332E+01
  0.250070E+01
  0.261601E+01
  0.259044E+01
  0.268646E+01
  0.267812E+01
  0.265943E+01
  0.265009E+01
  0.263262E+01
  0.261352E+01
  0.262234E+01
  0.262164E+01
  0.265544E+01
  0.257316E+01
  0.280210E+01
  0.274277E+01
  0.270108E+01
  0.272109E+01
  0.273828E+01
  0.272959E+01
  0.272318E+01
  0.271722E+01
  0.267727E+01
  0.265170E+01
  0.261886E+01
  0.260263E+01
  0.257689E+01
  0.256038E+01
  0.255134E+01
  0.252331E+01
  0.249759E+01
  0.248897E+01
  0.247404E+01
  0.245932E+01
  0.245505E+01
  0.244529E+01
  0.241376E+01
  0.238277E+01
  0.239360E+01
  0.240121E+01
  0.239303E+01
  0.237225E+01
  0.235731E+01
  0.236234E+01
  0.237117E+01
  0.237706E+01
  0.237122E+01
  0.237251E+01
  0.238131E+01
  0.239710E+01
  0.241303E+01
  0.242990E+01
  0.244641E+01
  0.246003E+01
  0.248581E+01
  0.251531E+01
  0.254380E+01
  0.257026E+01
  0.260035E+01
  0.263982E+01
  0.266899E+01
  0.269509E+01
  0.271973E+01
  0.276199E+01
  0.280840E+01
  0.284850E+01
  0.288662E+01
  0.292419E+01
  0.296320E+01
  0.299999E+01
  0.303547E+01
  0.307493E+01
  0.311087E+01
  0.314341E+01
  0.317912E+01
  0.321272E+01
  0.324369E+01
  0.327037E+01
  0.329929E+01
  0.333118E+01
  0.335580E+01
  0.338062E+01
  0.340660E+01
  0.342835E+01
  0.344817E+01
  0.346608E+01
  0.348207E+01
  0.349764E+01
  0.351344E+01
  0.353350E+01
  0.354412E+01
  0.355118E+01
  0.355765E+01
  0.357643E+01
  0.359218E+01
  0.360481E+01
  0.361450E+01
  0.362477E+01
  0.363492E+01
  0.364585E+01
  0.365674E+01
  0.366559E+01
  0.367518E+01
  0.368568E+01
  0.369648E+01
  0.370632E+01
  0.371499E+01
  0.372436E+01
  0.373490E+01
  0.374365E+01
  0.375000E+01
  0.375694E+01
  0.376370E+01
  0.376816E+01
  0.377064E+01
  0.377098E+01
  0.376840E+01
  0.376247E+01
  0.375282E+01
  0.373743E+01
  0.371716E+01
  0.368828E+01
  0.365135E+01
  0.360374E+01
  0.354172E+01
  0.346051E+01
  0.335656E+01
  0.322086E+01
  0.304799E+01
  0.283111E+01
  0.255650E+01
  0.223424E+01
  0.189834E+01
  0.162628E+01
  0.145326E+01
  0.125202E+01
  0.771698E+00
  0.159351E-01
  0.125365E-03
 -0.653796E-03
 -0.894168E-03
 -0.113448E-02
 -0.132742E-02
 -0.143089E-02
 -0.134791E-02
 -0.109639E-02
 -0.760534E-03
 -0.565040E-03
 -0.624247E-03
 -0.695337E-03
 -0.446070E-03
  0.230000E-03
  0.947610E-03
  0.131661E-02
  0.144140E-02
  0.152035E-02
  0.160645E-02
  0.166790E-02
  0.167395E-02
  0.159704E-02
  0.145472E-02
  0.126208E-02
  0.104709E-02
  0.795389E-03
  0.487548E-03
  0.205511E-03
 -0.352630E-07
 -0.166114E-03
 -0.317255E-03
 -0.452466E-03
 -0.571304E-03
 -0.666421E-03
 -0.738221E-03
 -0.789958E-03
 -0.825424E-03
 -0.851330E-03
 -0.873130E-03
 -0.895137E-03
 -0.916442E-03
 -0.939660E-03
 -0.970197E-03
 -0.101041E-02
 -0.105785E-02
 -0.111512E-02
 -0.117948E-02
 -0.125027E-02
 -0.132893E-02
 -0.141271E-02
 -0.150880E-02
 -0.160584E-02
 -0.170509E-02
 -0.180567E-02
 -0.190724E-02
 -0.201105E-02
 -0.211207E-02
 -0.221098E-02
 -0.230872E-02
 -0.239873E-02
 -0.248626E-02
 -0.257261E-02
 -0.265138E-02
 -0.272781E-02
 -0.280179E-02
 -0.287072E-02
 -0.293705E-02
 -0.300076E-02
 -0.305962E-02
 -0.311502E-02
 -0.316766E-02
 -0.321621E-02
 -0.326126E-02
 -0.330449E-02
 -0.334572E-02
 -0.338598E-02
 -0.342571E-02
 -0.346425E-02
 -0.350212E-02
 -0.353959E-02
 -0.357670E-02
 -0.361373E-02
 -0.365099E-02
 -0.368950E-02
 -0.372870E-02
 -0.376904E-02
 -0.381225E-02
 -0.385687E-02
 -0.390348E-02
 -0.395417E-02
 -0.400702E-02
 -0.406255E-02
 -0.412263E-02
 -0.418480E-02
 -0.424921E-02
 -0.431796E-02
 -0.438810E-02
 -0.445929E-02
 -0.453442E-02
 -0.461000E-02
 -0.468616E-02
 -0.476531E-02
 -0.484366E-02
 -0.492297E-02
 -0.500501E-02
 -0.508731E-02
 -0.517264E-02
 -0.525951E-02
 -0.534575E-02
 -0.543647E-02
 -0.552592E-02
 -0.561719E-02
 -0.571019E-02
 -0.580178E-02
 -0.589832E-02
 -0.599289E-02
 -0.609196E-02
 -0.619126E-02
 -0.629375E-02
 -0.639879E-02
 -0.650633E-02
 -0.661760E-02
 -0.673134E-02
 -0.684981E-02
 -0.697345E-02
 -0.710141E-02
 -0.723837E-02
 -0.737786E-02
 -0.753158E-02
 -0.769169E-02
 -0.785940E-02
 -0.804438E-02
 -0.823968E-02
 -0.844606E-02
 -0.866675E-02
 -0.890753E-02
 -0.916835E-02
 -0.944962E-02
 -0.975314E-02
 -0.100851E-01
 -0.104489E-01
 -0.108378E-01
 -0.112451E-01
 -0.116078E-01
 -0.119361E-01
 -0.125532E-01
 -0.138646E-01
 -0.154619E-01
 -0.193577E-01
 -0.685483E-01
  0.546884E-02
  0.108162E-01
  0.138902E-01
  0.158175E-01
  0.163257E-01
  0.162701E-01
  0.163704E-01
  0.167447E-01
  0.176850E-01
  0.191784E-01
  0.204876E-01
  0.198850E-01
  0.172140E-01
  0.132254E-01
  0.893261E-02
  0.568109E-02
  0.361050E-02
  0.250667E-02
  0.190348E-02
  0.152379E-02
  0.125546E-02
  0.108402E-02
  0.926021E-03
  0.776667E-03
  0.638404E-03
  0.478445E-03
  0.237156E-03
  0.185647E-03
  0.271037E-03