 Title= "ADflow Lift Distribution Data"
Variables = "eta" "CoordinateX" "CoordinateY" "CoordinateZ" "Lift" "Drag" "Normalized Lift" "Normalized Drag" "CL" "CD" "CLp" "CDp" "CLv" "CDv" "Ellptical" "thickness" "twist" "chord" 
Zone T= "LiftDist_01 allWalls: : y normal"
 I=          150
 DATAPACKING=BLOCK
  0.000000E+00
  0.671141E-02
  0.134228E-01
  0.201342E-01
  0.268456E-01
  0.335570E-01
  0.402685E-01
  0.469799E-01
  0.536913E-01
  0.604027E-01
  0.671141E-01
  0.738255E-01
  0.805369E-01
  0.872483E-01
  0.939597E-01
  0.100671E+00
  0.107383E+00
  0.114094E+00
  0.120805E+00
  0.127517E+00
  0.134228E+00
  0.140940E+00
  0.147651E+00
  0.154362E+00
  0.161074E+00
  0.167785E+00
  0.174497E+00
  0.181208E+00
  0.187919E+00
  0.194631E+00
  0.201342E+00
  0.208054E+00
  0.214765E+00
  0.221477E+00
  0.228188E+00
  0.234899E+00
  0.241611E+00
  0.248322E+00
  0.255034E+00
  0.261745E+00
  0.268456E+00
  0.275168E+00
  0.281879E+00
  0.288591E+00
  0.295302E+00
  0.302013E+00
  0.308725E+00
  0.315436E+00
  0.322148E+00
  0.328859E+00
  0.335570E+00
  0.342282E+00
  0.348993E+00
  0.355705E+00
  0.362416E+00
  0.369128E+00
  0.375839E+00
  0.382550E+00
  0.389262E+00
  0.395973E+00
  0.402685E+00
  0.409396E+00
  0.416107E+00
  0.422819E+00
  0.429530E+00
  0.436242E+00
  0.442953E+00
  0.449664E+00
  0.456376E+00
  0.463087E+00
  0.469799E+00
  0.476510E+00
  0.483221E+00
  0.489933E+00
  0.496644E+00
  0.503356E+00
  0.510067E+00
  0.516779E+00
  0.523490E+00
  0.530201E+00
  0.536913E+00
  0.543624E+00
  0.550336E+00
  0.557047E+00
  0.563758E+00
  0.570470E+00
  0.577181E+00
  0.583893E+00
  0.590604E+00
  0.597315E+00
  0.604027E+00
  0.610738E+00
  0.617450E+00
  0.624161E+00
  0.630872E+00
  0.637584E+00
  0.644295E+00
  0.651007E+00
  0.657718E+00
  0.664430E+00
  0.671141E+00
  0.677852E+00
  0.684564E+00
  0.691275E+00
  0.697987E+00
  0.704698E+00
  0.711409E+00
  0.718121E+00
  0.724832E+00
  0.731544E+00
  0.738255E+00
  0.744966E+00
  0.751678E+00
  0.758389E+00
  0.765101E+00
  0.771812E+00
  0.778523E+00
  0.785235E+00
  0.791946E+00
  0.798658E+00
  0.805369E+00
  0.812081E+00
  0.818792E+00
  0.825503E+00
  0.832215E+00
  0.838926E+00
  0.845638E+00
  0.852349E+00
  0.859060E+00
  0.865772E+00
  0.872483E+00
  0.879195E+00
  0.885906E+00
  0.892617E+00
  0.899329E+00
  0.906040E+00
  0.912752E+00
  0.919463E+00
  0.926174E+00
  0.932886E+00
  0.939597E+00
  0.946309E+00
  0.953020E+00
  0.959732E+00
  0.966443E+00
  0.973154E+00
  0.979866E+00
  0.986577E+00
  0.993289E+00
  0.100000E+01
  0.000000E+00
  0.000000E+00
  0.000000E+00
  0.000000E+00
  0.000000E+00
  0.000000E+00
  0.000000E+00
  0.000000E+00
  0.000000E+00
  0.000000E+00
  0.000000E+00
  0.000000E+00
  0.000000E+00
  0.000000E+00
  0.000000E+00
  0.000000E+00
  0.000000E+00
  0.000000E+00
  0.000000E+00
  0.000000E+00
  0.000000E+00
  0.000000E+00
  0.000000E+00
  0.000000E+00
  0.000000E+00
  0.000000E+00
  0.000000E+00
  0.000000E+00
  0.000000E+00
  0.000000E+00
  0.000000E+00
  0.000000E+00
  0.000000E+00
  0.000000E+00
  0.000000E+00
  0.000000E+00
  0.000000E+00
  0.000000E+00
  0.000000E+00
  0.000000E+00
  0.000000E+00
  0.000000E+00
  0.000000E+00
  0.000000E+00
  0.000000E+00
  0.000000E+00
  0.000000E+00
  0.000000E+00
  0.000000E+00
  0.000000E+00
  0.000000E+00
  0.000000E+00
  0.000000E+00
  0.000000E+00
  0.000000E+00
  0.000000E+00
  0.000000E+00
  0.000000E+00
  0.000000E+00
  0.000000E+00
  0.000000E+00
  0.000000E+00
  0.000000E+00
  0.000000E+00
  0.000000E+00
  0.000000E+00
  0.000000E+00
  0.000000E+00
  0.000000E+00
  0.000000E+00
  0.000000E+00
  0.000000E+00
  0.000000E+00
  0.000000E+00
  0.000000E+00
  0.000000E+00
  0.000000E+00
  0.000000E+00
  0.000000E+00
  0.000000E+00
  0.000000E+00
  0.000000E+00
  0.000000E+00
  0.000000E+00
  0.000000E+00
  0.000000E+00
  0.000000E+00
  0.000000E+00
  0.000000E+00
  0.000000E+00
  0.000000E+00
  0.000000E+00
  0.000000E+00
  0.000000E+00
  0.000000E+00
  0.000000E+00
  0.000000E+00
  0.000000E+00
  0.000000E+00
  0.000000E+00
  0.000000E+00
  0.000000E+00
  0.000000E+00
  0.000000E+00
  0.000000E+00
  0.000000E+00
  0.000000E+00
  0.000000E+00
  0.000000E+00
  0.000000E+00
  0.000000E+00
  0.000000E+00
  0.000000E+00
  0.000000E+00
  0.000000E+00
  0.000000E+00
  0.000000E+00
  0.000000E+00
  0.000000E+00
  0.000000E+00
  0.000000E+00
  0.000000E+00
  0.000000E+00
  0.000000E+00
  0.000000E+00
  0.000000E+00
  0.000000E+00
  0.000000E+00
  0.000000E+00
  0.000000E+00
  0.000000E+00
  0.000000E+00
  0.000000E+00
  0.000000E+00
  0.000000E+00
  0.000000E+00
  0.000000E+00
  0.000000E+00
  0.000000E+00
  0.000000E+00
  0.000000E+00
  0.000000E+00
  0.000000E+00
  0.000000E+00
  0.000000E+00
  0.000000E+00
  0.000000E+00
  0.000000E+00
  0.000000E+00
  0.000000E+00
 -0.448630E+02
 -0.439637E+02
 -0.430644E+02
 -0.421651E+02
 -0.412658E+02
 -0.403665E+02
 -0.394672E+02
 -0.385678E+02
 -0.376685E+02
 -0.367692E+02
 -0.358699E+02
 -0.349706E+02
 -0.340713E+02
 -0.331720E+02
 -0.322727E+02
 -0.313733E+02
 -0.304740E+02
 -0.295747E+02
 -0.286754E+02
 -0.277761E+02
 -0.268768E+02
 -0.259775E+02
 -0.250782E+02
 -0.241788E+02
 -0.232795E+02
 -0.223802E+02
 -0.214809E+02
 -0.205816E+02
 -0.196823E+02
 -0.187830E+02
 -0.178837E+02
 -0.169844E+02
 -0.160850E+02
 -0.151857E+02
 -0.142864E+02
 -0.133871E+02
 -0.124878E+02
 -0.115885E+02
 -0.106892E+02
 -0.978986E+01
 -0.889055E+01
 -0.799124E+01
 -0.709193E+01
 -0.619261E+01
 -0.529330E+01
 -0.439399E+01
 -0.349468E+01
 -0.259537E+01
 -0.169605E+01
 -0.796743E+00
  0.102569E+00
  0.100188E+01
  0.190119E+01
  0.280050E+01
  0.369982E+01
  0.459913E+01
  0.549844E+01
  0.639775E+01
  0.729706E+01
  0.819638E+01
  0.909569E+01
  0.999500E+01
  0.108943E+02
  0.117936E+02
  0.126929E+02
  0.135922E+02
  0.144916E+02
  0.153909E+02
  0.162902E+02
  0.171895E+02
  0.180888E+02
  0.189881E+02
  0.198874E+02
  0.207867E+02
  0.216861E+02
  0.225854E+02
  0.234847E+02
  0.243840E+02
  0.252833E+02
  0.261826E+02
  0.270819E+02
  0.279812E+02
  0.288805E+02
  0.297799E+02
  0.306792E+02
  0.315785E+02
  0.324778E+02
  0.333771E+02
  0.342764E+02
  0.351757E+02
  0.360750E+02
  0.369744E+02
  0.378737E+02
  0.387730E+02
  0.396723E+02
  0.405716E+02
  0.414709E+02
  0.423702E+02
  0.432695E+02
  0.441688E+02
  0.450682E+02
  0.459675E+02
  0.468668E+02
  0.477661E+02
  0.486654E+02
  0.495647E+02
  0.504640E+02
  0.513633E+02
  0.522627E+02
  0.531620E+02
  0.540613E+02
  0.549606E+02
  0.558599E+02
  0.567592E+02
  0.576585E+02
  0.585578E+02
  0.594571E+02
  0.603565E+02
  0.612558E+02
  0.621551E+02
  0.630544E+02
  0.639537E+02
  0.648530E+02
  0.657523E+02
  0.666516E+02
  0.675510E+02
  0.684503E+02
  0.693496E+02
  0.702489E+02
  0.711482E+02
  0.720475E+02
  0.729468E+02
  0.738461E+02
  0.747454E+02
  0.756448E+02
  0.765441E+02
  0.774434E+02
  0.783427E+02
  0.792420E+02
  0.801413E+02
  0.810406E+02
  0.819399E+02
  0.828393E+02
  0.837386E+02
  0.846379E+02
  0.855372E+02
  0.864365E+02
  0.873358E+02
  0.882351E+02
  0.891344E+02
  0.000000E+00
  0.000000E+00
  0.000000E+00
  0.000000E+00
  0.000000E+00
  0.000000E+00
  0.000000E+00
  0.000000E+00
  0.000000E+00
  0.000000E+00
  0.000000E+00
  0.000000E+00
  0.000000E+00
  0.000000E+00
  0.000000E+00
  0.000000E+00
  0.000000E+00
  0.000000E+00
  0.000000E+00
  0.000000E+00
  0.000000E+00
  0.000000E+00
  0.000000E+00
  0.000000E+00
  0.000000E+00
  0.000000E+00
  0.000000E+00
  0.000000E+00
  0.000000E+00
  0.000000E+00
  0.000000E+00
  0.000000E+00
  0.000000E+00
  0.000000E+00
  0.000000E+00
  0.000000E+00
  0.000000E+00
  0.000000E+00
  0.000000E+00
  0.000000E+00
  0.000000E+00
  0.000000E+00
  0.000000E+00
  0.000000E+00
  0.000000E+00
  0.000000E+00
  0.000000E+00
  0.000000E+00
  0.000000E+00
  0.000000E+00
  0.000000E+00
  0.000000E+00
  0.000000E+00
  0.000000E+00
  0.000000E+00
  0.000000E+00
  0.000000E+00
  0.000000E+00
  0.000000E+00
  0.000000E+00
  0.000000E+00
  0.000000E+00
  0.000000E+00
  0.000000E+00
  0.000000E+00
  0.000000E+00
  0.000000E+00
  0.000000E+00
  0.000000E+00
  0.000000E+00
  0.000000E+00
  0.000000E+00
  0.000000E+00
  0.000000E+00
  0.000000E+00
  0.000000E+00
  0.000000E+00
  0.000000E+00
  0.000000E+00
  0.000000E+00
  0.000000E+00
  0.000000E+00
  0.000000E+00
  0.000000E+00
  0.000000E+00
  0.000000E+00
  0.000000E+00
  0.000000E+00
  0.000000E+00
  0.000000E+00
  0.000000E+00
  0.000000E+00
  0.000000E+00
  0.000000E+00
  0.000000E+00
  0.000000E+00
  0.000000E+00
  0.000000E+00
  0.000000E+00
  0.000000E+00
  0.000000E+00
  0.000000E+00
  0.000000E+00
  0.000000E+00
  0.000000E+00
  0.000000E+00
  0.000000E+00
  0.000000E+00
  0.000000E+00
  0.000000E+00
  0.000000E+00
  0.000000E+00
  0.000000E+00
  0.000000E+00
  0.000000E+00
  0.000000E+00
  0.000000E+00
  0.000000E+00
  0.000000E+00
  0.000000E+00
  0.000000E+00
  0.000000E+00
  0.000000E+00
  0.000000E+00
  0.000000E+00
  0.000000E+00
  0.000000E+00
  0.000000E+00
  0.000000E+00
  0.000000E+00
  0.000000E+00
  0.000000E+00
  0.000000E+00
  0.000000E+00
  0.000000E+00
  0.000000E+00
  0.000000E+00
  0.000000E+00
  0.000000E+00
  0.000000E+00
  0.000000E+00
  0.000000E+00
  0.000000E+00
  0.000000E+00
  0.000000E+00
  0.000000E+00
  0.000000E+00
  0.000000E+00
  0.000000E+00
  0.000000E+00
 -0.669366E-03
 -0.716875E+03
 -0.471424E+03
 -0.381341E+03
 -0.310674E+03
 -0.278827E+03
 -0.248393E+03
 -0.246473E+03
 -0.226439E+03
 -0.227081E+03
 -0.235455E+03
 -0.240884E+03
 -0.245841E+03
 -0.271543E+03
 -0.422477E+03
 -0.537964E+03
 -0.563668E+03
 -0.602002E+03
 -0.650691E+03
 -0.693252E+03
 -0.739235E+03
 -0.758549E+03
 -0.769714E+03
 -0.764918E+03
 -0.760092E+03
 -0.775980E+03
 -0.766241E+03
 -0.788610E+03
 -0.848050E+03
 -0.933032E+03
 -0.100344E+04
 -0.104650E+04
 -0.114952E+04
 -0.126265E+04
 -0.131300E+04
 -0.142742E+04
 -0.150296E+04
 -0.149605E+04
 -0.140329E+04
 -0.126145E+04
 -0.114479E+04
 -0.111667E+04
 -0.104866E+04
 -0.103101E+04
 -0.100575E+04
 -0.930490E+03
 -0.116748E+04
  0.210009E+04
  0.451168E+04
  0.566188E+04
  0.512653E+04
  0.363996E+04
  0.242616E+04
  0.185917E+04
  0.132684E+04
  0.825307E+03
  0.350340E+03
  0.144090E+03
  0.165461E+03
  0.186643E+03
  0.207635E+03
  0.228433E+03
  0.249038E+03
  0.269446E+03
  0.288999E+03
  0.302104E+03
  0.315088E+03
  0.327977E+03
  0.340797E+03
  0.353573E+03
  0.366329E+03
  0.379092E+03
  0.391884E+03
  0.398153E+03
  0.388194E+03
  0.378344E+03
  0.368603E+03
  0.358975E+03
  0.349459E+03
  0.340059E+03
  0.330776E+03
  0.321613E+03
  0.312571E+03
  0.302614E+03
  0.291150E+03
  0.279842E+03
  0.268690E+03
  0.257692E+03
  0.246848E+03
  0.236159E+03
  0.225623E+03
  0.215240E+03
  0.205009E+03
  0.194930E+03
  0.192310E+03
  0.190505E+03
  0.188659E+03
  0.186776E+03
  0.184857E+03
  0.182904E+03
  0.180918E+03
  0.178901E+03
  0.176855E+03
  0.174782E+03
  0.171356E+03
  0.166363E+03
  0.161385E+03
  0.156425E+03
  0.151480E+03
  0.146552E+03
  0.141641E+03
  0.136747E+03
  0.131870E+03
  0.127011E+03
  0.121098E+03
  0.114814E+03
  0.108636E+03
  0.102563E+03
  0.965934E+02
  0.907288E+02
  0.849686E+02
  0.793129E+02
  0.740384E+02
  0.715343E+02
  0.690702E+02
  0.666460E+02
  0.642619E+02
  0.619178E+02
  0.596137E+02
  0.573497E+02
  0.561824E+02
  0.551430E+02
  0.540934E+02
  0.530334E+02
  0.519631E+02
  0.509961E+02
  0.509256E+02
  0.507970E+02
  0.506103E+02
  0.503656E+02
  0.519026E+02
  0.542540E+02
  0.563237E+02
  0.589826E+02
  0.634455E+02
  0.671196E+02
  0.733394E+02
  0.785996E+02
  0.118267E+03
  0.923663E-04
  0.819112E-04
  0.975037E+04
  0.130285E+05
  0.148103E+05
  0.159103E+05
  0.165443E+05
  0.169220E+05
  0.171240E+05
  0.171837E+05
  0.171270E+05
  0.170439E+05
  0.169076E+05
  0.167494E+05
  0.165379E+05
  0.163662E+05
  0.163886E+05
  0.163873E+05
  0.163281E+05
  0.162036E+05
  0.159994E+05
  0.157480E+05
  0.154473E+05
  0.151252E+05
  0.148195E+05
  0.144920E+05
  0.141978E+05
  0.138835E+05
  0.135573E+05
  0.132468E+05
  0.129621E+05
  0.126922E+05
  0.123781E+05
  0.120217E+05
  0.116859E+05
  0.111837E+05
  0.105465E+05
  0.989096E+04
  0.923652E+04
  0.849594E+04
  0.764011E+04
  0.670017E+04
  0.580056E+04
  0.511103E+04
  0.454238E+04
  0.412311E+04
  0.396731E+04
  0.416214E+04
  0.427455E+04
  0.390254E+04
  0.330600E+04
  0.270368E+04
  0.198427E+04
  0.165382E+04
  0.150175E+04
  0.136418E+04
  0.123742E+04
  0.111777E+04
  0.105722E+04
  0.104741E+04
  0.103765E+04
  0.102797E+04
  0.101838E+04
  0.100890E+04
  0.999554E+03
  0.100494E+04
  0.114817E+04
  0.128811E+04
  0.142510E+04
  0.155949E+04
  0.169167E+04
  0.182204E+04
  0.195103E+04
  0.207913E+04
  0.219801E+04
  0.229275E+04
  0.238411E+04
  0.247229E+04
  0.255747E+04
  0.263989E+04
  0.271976E+04
  0.279733E+04
  0.287285E+04
  0.294661E+04
  0.301310E+04
  0.306854E+04
  0.312188E+04
  0.317316E+04
  0.322240E+04
  0.326962E+04
  0.331485E+04
  0.335811E+04
  0.339945E+04
  0.343888E+04
  0.347644E+04
  0.351989E+04
  0.356231E+04
  0.360286E+04
  0.364161E+04
  0.367863E+04
  0.371401E+04
  0.374781E+04
  0.378012E+04
  0.381102E+04
  0.384061E+04
  0.388218E+04
  0.393601E+04
  0.398564E+04
  0.403110E+04
  0.407238E+04
  0.410952E+04
  0.414251E+04
  0.417140E+04
  0.419620E+04
  0.421693E+04
  0.423843E+04
  0.425736E+04
  0.427155E+04
  0.428106E+04
  0.428590E+04
  0.428614E+04
  0.428180E+04
  0.427297E+04
  0.426488E+04
  0.430258E+04
  0.433523E+04
  0.436283E+04
  0.438539E+04
  0.440292E+04
  0.441541E+04
  0.442287E+04
  0.444539E+04
  0.446500E+04
  0.447908E+04
  0.448763E+04
  0.449067E+04
  0.448686E+04
  0.446716E+04
  0.444301E+04
  0.441442E+04
  0.438140E+04
  0.431333E+04
  0.422384E+04
  0.413060E+04
  0.400634E+04
  0.380522E+04
  0.360403E+04
  0.330395E+04
  0.298333E+04
  0.243514E+04
  0.331218E-03
 -0.115622E-04
 -0.123828E+02
 -0.814305E+01
 -0.658702E+01
 -0.536637E+01
 -0.481627E+01
 -0.429057E+01
 -0.425740E+01
 -0.391136E+01
 -0.392244E+01
 -0.406709E+01
 -0.416086E+01
 -0.424649E+01
 -0.469045E+01
 -0.729758E+01
 -0.929243E+01
 -0.973641E+01
 -0.103986E+02
 -0.112396E+02
 -0.119748E+02
 -0.127690E+02
 -0.131027E+02
 -0.132955E+02
 -0.132127E+02
 -0.131293E+02
 -0.134038E+02
 -0.132355E+02
 -0.136219E+02
 -0.146486E+02
 -0.161166E+02
 -0.173328E+02
 -0.180765E+02
 -0.198561E+02
 -0.218102E+02
 -0.226798E+02
 -0.246563E+02
 -0.259610E+02
 -0.258418E+02
 -0.242394E+02
 -0.217894E+02
 -0.197744E+02
 -0.192887E+02
 -0.181139E+02
 -0.178089E+02
 -0.173726E+02
 -0.160726E+02
 -0.201663E+02
  0.362756E+02
  0.779317E+02
  0.977994E+02
  0.885521E+02
  0.628741E+02
  0.419079E+02
  0.321140E+02
  0.229190E+02
  0.142558E+02
  0.605153E+01
  0.248891E+01
  0.285807E+01
  0.322395E+01
  0.358654E+01
  0.394580E+01
  0.430171E+01
  0.465422E+01
  0.499197E+01
  0.521833E+01
  0.544261E+01
  0.566526E+01
  0.588670E+01
  0.610737E+01
  0.632772E+01
  0.654817E+01
  0.676914E+01
  0.687742E+01
  0.670540E+01
  0.653525E+01
  0.636700E+01
  0.620068E+01
  0.603632E+01
  0.587395E+01
  0.571360E+01
  0.555532E+01
  0.539914E+01
  0.522715E+01
  0.502913E+01
  0.483380E+01
  0.464116E+01
  0.445119E+01
  0.426389E+01
  0.407925E+01
  0.389725E+01
  0.371790E+01
  0.354118E+01
  0.336709E+01
  0.332184E+01
  0.329064E+01
  0.325877E+01
  0.322625E+01
  0.319310E+01
  0.315936E+01
  0.312505E+01
  0.309022E+01
  0.305488E+01
  0.301907E+01
  0.295989E+01
  0.287363E+01
  0.278766E+01
  0.270197E+01
  0.261656E+01
  0.253145E+01
  0.244662E+01
  0.236208E+01
  0.227784E+01
  0.219389E+01
  0.209176E+01
  0.198323E+01
  0.187651E+01
  0.177159E+01
  0.166849E+01
  0.156719E+01
  0.146769E+01
  0.137000E+01
  0.127889E+01
  0.123563E+01
  0.119307E+01
  0.115120E+01
  0.111002E+01
  0.106953E+01
  0.102973E+01
  0.990620E+00
  0.970455E+00
  0.952503E+00
  0.934372E+00
  0.916062E+00
  0.897575E+00
  0.880871E+00
  0.879654E+00
  0.877432E+00
  0.874208E+00
  0.869980E+00
  0.896530E+00
  0.937146E+00
  0.972897E+00
  0.101882E+01
  0.109591E+01
  0.115938E+01
  0.126681E+01
  0.135768E+01
  0.204287E+01
  0.159547E-05
  0.133095E-07
  0.158431E+01
  0.211697E+01
  0.240648E+01
  0.258522E+01
  0.268823E+01
  0.274960E+01
  0.278243E+01
  0.279213E+01
  0.278291E+01
  0.276941E+01
  0.274726E+01
  0.272155E+01
  0.268720E+01
  0.265929E+01
  0.266294E+01
  0.266273E+01
  0.265309E+01
  0.263286E+01
  0.259970E+01
  0.255885E+01
  0.250998E+01
  0.245765E+01
  0.240798E+01
  0.235476E+01
  0.230695E+01
  0.225589E+01
  0.220289E+01
  0.215242E+01
  0.210617E+01
  0.206231E+01
  0.201127E+01
  0.195337E+01
  0.189881E+01
  0.181721E+01
  0.171367E+01
  0.160715E+01
  0.150081E+01
  0.138048E+01
  0.124142E+01
  0.108869E+01
  0.942514E+00
  0.830476E+00
  0.738077E+00
  0.669951E+00
  0.644636E+00
  0.676292E+00
  0.694558E+00
  0.634111E+00
  0.537182E+00
  0.439312E+00
  0.322418E+00
  0.268725E+00
  0.244014E+00
  0.221661E+00
  0.201065E+00
  0.181624E+00
  0.171784E+00
  0.170190E+00
  0.168605E+00
  0.167032E+00
  0.165473E+00
  0.163933E+00
  0.162414E+00
  0.163290E+00
  0.186563E+00
  0.209301E+00
  0.231560E+00
  0.253397E+00
  0.274874E+00
  0.296057E+00
  0.317017E+00
  0.337831E+00
  0.357148E+00
  0.372541E+00
  0.387387E+00
  0.401714E+00
  0.415556E+00
  0.428948E+00
  0.441926E+00
  0.454530E+00
  0.466801E+00
  0.478785E+00
  0.489589E+00
  0.498597E+00
  0.507265E+00
  0.515597E+00
  0.523597E+00
  0.531270E+00
  0.538619E+00
  0.545649E+00
  0.552365E+00
  0.558772E+00
  0.564876E+00
  0.571936E+00
  0.578829E+00
  0.585417E+00
  0.591714E+00
  0.597730E+00
  0.603477E+00
  0.608970E+00
  0.614220E+00
  0.619241E+00
  0.624048E+00
  0.630803E+00
  0.639549E+00
  0.647615E+00
  0.655000E+00
  0.661709E+00
  0.667742E+00
  0.673104E+00
  0.677798E+00
  0.681827E+00
  0.685196E+00
  0.688689E+00
  0.691764E+00
  0.694071E+00
  0.695615E+00
  0.696403E+00
  0.696441E+00
  0.695737E+00
  0.694302E+00
  0.692987E+00
  0.699113E+00
  0.704418E+00
  0.708903E+00
  0.712569E+00
  0.715416E+00
  0.717446E+00
  0.718658E+00
  0.722318E+00
  0.725504E+00
  0.727791E+00
  0.729182E+00
  0.729676E+00
  0.729056E+00
  0.725854E+00
  0.721930E+00
  0.717286E+00
  0.711920E+00
  0.700860E+00
  0.686318E+00
  0.671169E+00
  0.650978E+00
  0.618298E+00
  0.585607E+00
  0.536849E+00
  0.484751E+00
  0.395679E+00
  0.538185E-07
 -0.132601E+03
 -0.118740E+00
 -0.792119E-01
 -0.652253E-01
 -0.541477E-01
 -0.495593E-01
 -0.450522E-01
 -0.456455E-01
 -0.428406E-01
 -0.439086E-01
 -0.465519E-01
 -0.487211E-01
 -0.508923E-01
 -0.575615E-01
 -0.917574E-01
 -0.119783E+00
 -0.128743E+00
 -0.141131E+00
 -0.156685E+00
 -0.171589E+00
 -0.188219E+00
 -0.198836E+00
 -0.207897E+00
 -0.213080E+00
 -0.218589E+00
 -0.230635E+00
 -0.235658E+00
 -0.251305E+00
 -0.280367E+00
 -0.320457E+00
 -0.358583E+00
 -0.389722E+00
 -0.447240E+00
 -0.514409E+00
 -0.561381E+00
 -0.642064E+00
 -0.712683E+00
 -0.750102E+00
 -0.747371E+00
 -0.716406E+00
 -0.696298E+00
 -0.731057E+00
 -0.745172E+00
 -0.805039E+00
 -0.871443E+00
 -0.905538E+00
 -0.129611E+01
  0.270953E+01
  0.692148E+01
  0.107111E+02
  0.127314E+02
  0.128745E+02
  0.115189E+02
  0.884414E+01
  0.631976E+01
  0.393066E+01
  0.166525E+01
  0.682692E+00
  0.780495E+00
  0.876550E+00
  0.970876E+00
  0.106349E+01
  0.115439E+01
  0.124361E+01
  0.132827E+01
  0.138408E+01
  0.143897E+01
  0.149307E+01
  0.154648E+01
  0.159934E+01
  0.165175E+01
  0.170384E+01
  0.175571E+01
  0.178334E+01
  0.175104E+01
  0.171876E+01
  0.168649E+01
  0.165424E+01
  0.162202E+01
  0.158985E+01
  0.155774E+01
  0.152569E+01
  0.149372E+01
  0.145744E+01
  0.141418E+01
  0.137093E+01
  0.132768E+01
  0.128444E+01
  0.124120E+01
  0.119797E+01
  0.115474E+01
  0.111151E+01
  0.106828E+01
  0.102505E+01
  0.102381E+01
  0.102731E+01
  0.103067E+01
  0.103390E+01
  0.103701E+01
  0.104001E+01
  0.104288E+01
  0.104565E+01
  0.104831E+01
  0.105087E+01
  0.104593E+01
  0.103193E+01
  0.101756E+01
  0.100281E+01
  0.987649E+00
  0.972067E+00
  0.956039E+00
  0.939543E+00
  0.922554E+00
  0.905048E+00
  0.879003E+00
  0.849132E+00
  0.818897E+00
  0.788274E+00
  0.757239E+00
  0.725768E+00
  0.693832E+00
  0.661405E+00
  0.630738E+00
  0.622129E+00
  0.613504E+00
  0.604864E+00
  0.596206E+00
  0.587529E+00
  0.578833E+00
  0.570116E+00
  0.571240E+00
  0.573629E+00
  0.576017E+00
  0.578405E+00
  0.580794E+00
  0.584414E+00
  0.598158E+00
  0.611902E+00
  0.625646E+00
  0.639390E+00
  0.679547E+00
  0.734854E+00
  0.790161E+00
  0.861145E+00
  0.975463E+00
  0.108978E+01
  0.128349E+01
  0.149977E+01
  0.263848E+01
  0.435056E+02
  0.162266E+02
  0.161501E+01
  0.218914E+01
  0.253318E+01
  0.277303E+01
  0.294062E+01
  0.306922E+01
  0.317128E+01
  0.325103E+01
  0.331170E+01
  0.336976E+01
  0.341973E+01
  0.346734E+01
  0.350570E+01
  0.355456E+01
  0.364910E+01
  0.374291E+01
  0.382789E+01
  0.390178E+01
  0.396008E+01
  0.400965E+01
  0.404915E+01
  0.408527E+01
  0.412820E+01
  0.416764E+01
  0.421982E+01
  0.426990E+01
  0.432029E+01
  0.437940E+01
  0.445194E+01
  0.453558E+01
  0.460967E+01
  0.467724E+01
  0.476089E+01
  0.478168E+01
  0.474388E+01
  0.469017E+01
  0.463108E+01
  0.452483E+01
  0.433899E+01
  0.407525E+01
  0.379747E+01
  0.363186E+01
  0.354682E+01
  0.357253E+01
  0.386093E+01
  0.462070E+01
  0.551500E+01
  0.598698E+01
  0.625425E+01
  0.671442E+01
  0.701838E+01
  0.785197E+01
  0.714389E+01
  0.649760E+01
  0.589342E+01
  0.531304E+01
  0.500904E+01
  0.494071E+01
  0.487323E+01
  0.480668E+01
  0.474112E+01
  0.467666E+01
  0.461337E+01
  0.461883E+01
  0.526032E+01
  0.588266E+01
  0.648755E+01
  0.707672E+01
  0.765204E+01
  0.821544E+01
  0.876899E+01
  0.931487E+01
  0.984494E+01
  0.103420E+02
  0.108306E+02
  0.113115E+02
  0.117854E+02
  0.122531E+02
  0.127155E+02
  0.131736E+02
  0.136284E+02
  0.140813E+02
  0.145116E+02
  0.149045E+02
  0.152938E+02
  0.156796E+02
  0.160617E+02
  0.164403E+02
  0.168154E+02
  0.171869E+02
  0.175550E+02
  0.179197E+02
  0.182810E+02
  0.187391E+02
  0.192100E+02
  0.196829E+02
  0.201582E+02
  0.206364E+02
  0.211181E+02
  0.216038E+02
  0.220942E+02
  0.225899E+02
  0.230916E+02
  0.236962E+02
  0.244147E+02
  0.251301E+02
  0.258426E+02
  0.265519E+02
  0.272580E+02
  0.279608E+02
  0.286603E+02
  0.293563E+02
  0.300489E+02
  0.307652E+02
  0.314861E+02
  0.321989E+02
  0.329033E+02
  0.335991E+02
  0.342861E+02
  0.349641E+02
  0.356331E+02
  0.363328E+02
  0.374193E+02
  0.385070E+02
  0.395960E+02
  0.406866E+02
  0.417787E+02
  0.428724E+02
  0.439679E+02
  0.451990E+02
  0.464474E+02
  0.476958E+02
  0.489441E+02
  0.501925E+02
  0.514194E+02
  0.524700E+02
  0.535206E+02
  0.545712E+02
  0.556218E+02
  0.564733E+02
  0.572106E+02
  0.579479E+02
  0.584925E+02
  0.585044E+02
  0.585164E+02
  0.578213E+02
  0.569251E+02
  0.543268E+02
  0.156007E+03
 -0.132490E+03
 -0.118555E+00
 -0.789505E-01
 -0.648902E-01
 -0.537451E-01
 -0.491557E-01
 -0.446264E-01
 -0.452057E-01
 -0.423933E-01
 -0.434218E-01
 -0.460393E-01
 -0.481938E-01
 -0.503183E-01
 -0.569286E-01
 -0.910065E-01
 -0.118915E+00
 -0.127801E+00
 -0.140108E+00
 -0.155664E+00
 -0.170589E+00
 -0.187120E+00
 -0.197614E+00
 -0.206529E+00
 -0.211621E+00
 -0.217020E+00
 -0.228882E+00
 -0.233709E+00
 -0.249136E+00
 -0.277946E+00
 -0.317762E+00
 -0.355614E+00
 -0.386469E+00
 -0.443727E+00
 -0.510787E+00
 -0.557662E+00
 -0.638124E+00
 -0.708272E+00
 -0.745209E+00
 -0.742034E+00
 -0.710588E+00
 -0.689913E+00
 -0.724084E+00
 -0.737644E+00
 -0.796906E+00
 -0.862617E+00
 -0.895988E+00
 -0.128637E+01
  0.271833E+01
  0.692810E+01
  0.107144E+02
  0.127295E+02
  0.128694E+02
  0.115104E+02
  0.883325E+01
  0.630650E+01
  0.391510E+01
  0.164746E+01
  0.663495E+00
  0.760632E+00
  0.856034E+00
  0.949720E+00
  0.104170E+01
  0.113200E+01
  0.122062E+01
  0.130475E+01
  0.136058E+01
  0.141549E+01
  0.146959E+01
  0.152302E+01
  0.157589E+01
  0.162832E+01
  0.168042E+01
  0.173230E+01
  0.175993E+01
  0.172763E+01
  0.169535E+01
  0.166308E+01
  0.163084E+01
  0.159863E+01
  0.156647E+01
  0.153436E+01
  0.150233E+01
  0.147038E+01
  0.143410E+01
  0.139081E+01
  0.134754E+01
  0.130427E+01
  0.126101E+01
  0.121776E+01
  0.117452E+01
  0.113127E+01
  0.108804E+01
  0.104480E+01
  0.100156E+01
  0.100043E+01
  0.100405E+01
  0.100754E+01
  0.101091E+01
  0.101415E+01
  0.101728E+01
  0.102029E+01
  0.102321E+01
  0.102602E+01
  0.102873E+01
  0.102401E+01
  0.101031E+01
  0.996252E+00
  0.981812E+00
  0.966974E+00
  0.951719E+00
  0.936024E+00
  0.919867E+00
  0.903225E+00
  0.886073E+00
  0.860337E+00
  0.830756E+00
  0.800813E+00
  0.770485E+00
  0.739748E+00
  0.708577E+00
  0.676944E+00
  0.644822E+00
  0.614455E+00
  0.606049E+00
  0.597628E+00
  0.589191E+00
  0.580737E+00
  0.572265E+00
  0.563772E+00
  0.555259E+00
  0.556524E+00
  0.559044E+00
  0.561565E+00
  0.564085E+00
  0.566605E+00
  0.570330E+00
  0.583951E+00
  0.597573E+00
  0.611194E+00
  0.624815E+00
  0.664747E+00
  0.719769E+00
  0.774791E+00
  0.845607E+00
  0.960085E+00
  0.107456E+01
  0.126975E+01
  0.148790E+01
  0.263089E+01
  0.435220E+02
  0.162525E+02
  0.161309E+01
  0.218645E+01
  0.253002E+01
  0.276955E+01
  0.293692E+01
  0.306534E+01
  0.316725E+01
  0.324687E+01
  0.330743E+01
  0.336538E+01
  0.341526E+01
  0.346280E+01
  0.350110E+01
  0.354970E+01
  0.364391E+01
  0.373725E+01
  0.382181E+01
  0.389529E+01
  0.395327E+01
  0.400254E+01
  0.404175E+01
  0.407760E+01
  0.412036E+01
  0.415971E+01
  0.421187E+01
  0.426193E+01
  0.431225E+01
  0.437122E+01
  0.444360E+01
  0.452703E+01
  0.460082E+01
  0.466799E+01
  0.475120E+01
  0.477161E+01
  0.473346E+01
  0.467933E+01
  0.461964E+01
  0.451278E+01
  0.432628E+01
  0.406181E+01
  0.378334E+01
  0.361668E+01
  0.353017E+01
  0.355408E+01
  0.383995E+01
  0.459599E+01
  0.549409E+01
  0.596767E+01
  0.623236E+01
  0.668522E+01
  0.697951E+01
  0.780843E+01
  0.710100E+01
  0.645553E+01
  0.585231E+01
  0.527301E+01
  0.496955E+01
  0.490125E+01
  0.483378E+01
  0.476723E+01
  0.470168E+01
  0.463720E+01
  0.457390E+01
  0.457935E+01
  0.522090E+01
  0.584329E+01
  0.644818E+01
  0.703735E+01
  0.761265E+01
  0.817601E+01
  0.872950E+01
  0.927532E+01
  0.980526E+01
  0.103020E+02
  0.107904E+02
  0.112710E+02
  0.117446E+02
  0.122120E+02
  0.126741E+02
  0.131319E+02
  0.135866E+02
  0.140392E+02
  0.144691E+02
  0.148616E+02
  0.152504E+02
  0.156357E+02
  0.160174E+02
  0.163956E+02
  0.167703E+02
  0.171415E+02
  0.175092E+02
  0.178736E+02
  0.182346E+02
  0.186917E+02
  0.191616E+02
  0.196335E+02
  0.201078E+02
  0.205849E+02
  0.210656E+02
  0.215502E+02
  0.220394E+02
  0.225340E+02
  0.230346E+02
  0.236383E+02
  0.243561E+02
  0.250710E+02
  0.257829E+02
  0.264918E+02
  0.271976E+02
  0.279002E+02
  0.285995E+02
  0.292954E+02
  0.299881E+02
  0.307042E+02
  0.314249E+02
  0.321377E+02
  0.328423E+02
  0.335385E+02
  0.342261E+02
  0.349049E+02
  0.355748E+02
  0.362755E+02
  0.373602E+02
  0.384462E+02
  0.395336E+02
  0.406224E+02
  0.417128E+02
  0.428048E+02
  0.438986E+02
  0.451281E+02
  0.463748E+02
  0.476215E+02
  0.488682E+02
  0.501149E+02
  0.513402E+02
  0.523893E+02
  0.534385E+02
  0.544876E+02
  0.555368E+02
  0.563871E+02
  0.571234E+02
  0.578597E+02
  0.584036E+02
  0.584157E+02
  0.584278E+02
  0.577344E+02
  0.568405E+02
  0.542480E+02
  0.156013E+03
 -0.111259E+00
 -0.184946E-03
 -0.261433E-03
 -0.335097E-03
 -0.402575E-03
 -0.403605E-03
 -0.425874E-03
 -0.439763E-03
 -0.447312E-03
 -0.486800E-03
 -0.512639E-03
 -0.527317E-03
 -0.574048E-03
 -0.632934E-03
 -0.750906E-03
 -0.868534E-03
 -0.942568E-03
 -0.102292E-02
 -0.102090E-02
 -0.100030E-02
 -0.109836E-02
 -0.122282E-02
 -0.136765E-02
 -0.145918E-02
 -0.156911E-02
 -0.175242E-02
 -0.194907E-02
 -0.216882E-02
 -0.242077E-02
 -0.269536E-02
 -0.296879E-02
 -0.325326E-02
 -0.351291E-02
 -0.362211E-02
 -0.371902E-02
 -0.394009E-02
 -0.441135E-02
 -0.489281E-02
 -0.533674E-02
 -0.581860E-02
 -0.638435E-02
 -0.697379E-02
 -0.752822E-02
 -0.813308E-02
 -0.882548E-02
 -0.954982E-02
 -0.973651E-02
 -0.880454E-02
 -0.662821E-02
 -0.330285E-02
  0.193162E-02
  0.516859E-02
  0.844014E-02
  0.108927E-01
  0.132616E-01
  0.155577E-01
  0.177878E-01
  0.191967E-01
  0.198631E-01
  0.205160E-01
  0.211553E-01
  0.217809E-01
  0.223926E-01
  0.229903E-01
  0.235178E-01
  0.235024E-01
  0.234877E-01
  0.234736E-01
  0.234603E-01
  0.234477E-01
  0.234357E-01
  0.234244E-01
  0.234138E-01
  0.234081E-01
  0.234110E-01
  0.234111E-01
  0.234085E-01
  0.234032E-01
  0.233955E-01
  0.233854E-01
  0.233731E-01
  0.233589E-01
  0.233428E-01
  0.233423E-01
  0.233669E-01
  0.233894E-01
  0.234097E-01
  0.234277E-01
  0.234435E-01
  0.234570E-01
  0.234682E-01
  0.234770E-01
  0.234835E-01
  0.234875E-01
  0.233791E-01
  0.232550E-01
  0.231278E-01
  0.229975E-01
  0.228640E-01
  0.227270E-01
  0.225865E-01
  0.224424E-01
  0.222944E-01
  0.221425E-01
  0.219213E-01
  0.216179E-01
  0.213091E-01
  0.209947E-01
  0.206744E-01
  0.203480E-01
  0.200152E-01
  0.196756E-01
  0.193289E-01
  0.189748E-01
  0.186655E-01
  0.183757E-01
  0.180834E-01
  0.177887E-01
  0.174913E-01
  0.171911E-01
  0.168882E-01
  0.165824E-01
  0.162835E-01
  0.160797E-01
  0.158760E-01
  0.156722E-01
  0.154684E-01
  0.152645E-01
  0.150607E-01
  0.148568E-01
  0.147166E-01
  0.145846E-01
  0.144526E-01
  0.143206E-01
  0.141886E-01
  0.140842E-01
  0.142068E-01
  0.143294E-01
  0.144520E-01
  0.145746E-01
  0.148005E-01
  0.150855E-01
  0.153705E-01
  0.155373E-01
  0.153776E-01
  0.152179E-01
  0.137328E-01
  0.118708E-01
  0.759910E-02
 -0.163742E-01
 -0.259009E-01
  0.192102E-02
  0.269647E-02
  0.315768E-02
  0.347314E-02
  0.369465E-02
  0.388174E-02
  0.403069E-02
  0.416089E-02
  0.427443E-02
  0.438295E-02
  0.446762E-02
  0.453938E-02
  0.459997E-02
  0.485717E-02
  0.519657E-02
  0.566551E-02
  0.608206E-02
  0.649389E-02
  0.681377E-02
  0.710897E-02
  0.739718E-02
  0.766591E-02
  0.783687E-02
  0.793583E-02
  0.794957E-02
  0.797443E-02
  0.803775E-02
  0.817907E-02