 Title= "ADflow Lift Distribution Data"
Variables = "eta" "CoordinateX" "CoordinateY" "CoordinateZ" "Lift" "Drag" "Normalized Lift" "Normalized Drag" "CL" "CD" "CLp" "CDp" "CLv" "CDv" "Ellptical" "thickness" "twist" "chord" 
Zone T= "LiftDist_01 allWalls: : z normal"
 I=          150
 DATAPACKING=BLOCK
  0.000000E+00
  0.671141E-02
  0.134228E-01
  0.201342E-01
  0.268456E-01
  0.335570E-01
  0.402685E-01
  0.469799E-01
  0.536913E-01
  0.604027E-01
  0.671141E-01
  0.738255E-01
  0.805369E-01
  0.872483E-01
  0.939597E-01
  0.100671E+00
  0.107383E+00
  0.114094E+00
  0.120805E+00
  0.127517E+00
  0.134228E+00
  0.140940E+00
  0.147651E+00
  0.154362E+00
  0.161074E+00
  0.167785E+00
  0.174497E+00
  0.181208E+00
  0.187919E+00
  0.194631E+00
  0.201342E+00
  0.208054E+00
  0.214765E+00
  0.221477E+00
  0.228188E+00
  0.234899E+00
  0.241611E+00
  0.248322E+00
  0.255034E+00
  0.261745E+00
  0.268456E+00
  0.275168E+00
  0.281879E+00
  0.288591E+00
  0.295302E+00
  0.302013E+00
  0.308725E+00
  0.315436E+00
  0.322148E+00
  0.328859E+00
  0.335570E+00
  0.342282E+00
  0.348993E+00
  0.355705E+00
  0.362416E+00
  0.369128E+00
  0.375839E+00
  0.382550E+00
  0.389262E+00
  0.395973E+00
  0.402685E+00
  0.409396E+00
  0.416107E+00
  0.422819E+00
  0.429530E+00
  0.436242E+00
  0.442953E+00
  0.449664E+00
  0.456376E+00
  0.463087E+00
  0.469799E+00
  0.476510E+00
  0.483221E+00
  0.489933E+00
  0.496644E+00
  0.503356E+00
  0.510067E+00
  0.516779E+00
  0.523490E+00
  0.530201E+00
  0.536913E+00
  0.543624E+00
  0.550336E+00
  0.557047E+00
  0.563758E+00
  0.570470E+00
  0.577181E+00
  0.583893E+00
  0.590604E+00
  0.597315E+00
  0.604027E+00
  0.610738E+00
  0.617450E+00
  0.624161E+00
  0.630872E+00
  0.637584E+00
  0.644295E+00
  0.651007E+00
  0.657718E+00
  0.664430E+00
  0.671141E+00
  0.677852E+00
  0.684564E+00
  0.691275E+00
  0.697987E+00
  0.704698E+00
  0.711409E+00
  0.718121E+00
  0.724832E+00
  0.731544E+00
  0.738255E+00
  0.744966E+00
  0.751678E+00
  0.758389E+00
  0.765101E+00
  0.771812E+00
  0.778523E+00
  0.785235E+00
  0.791946E+00
  0.798658E+00
  0.805369E+00
  0.812081E+00
  0.818792E+00
  0.825503E+00
  0.832215E+00
  0.838926E+00
  0.845638E+00
  0.852349E+00
  0.859060E+00
  0.865772E+00
  0.872483E+00
  0.879195E+00
  0.885906E+00
  0.892617E+00
  0.899329E+00
  0.906040E+00
  0.912752E+00
  0.919463E+00
  0.926174E+00
  0.932886E+00
  0.939597E+00
  0.946309E+00
  0.953020E+00
  0.959732E+00
  0.966443E+00
  0.973154E+00
  0.979866E+00
  0.986577E+00
  0.993289E+00
  0.100000E+01
  0.000000E+00
  0.000000E+00
  0.000000E+00
  0.000000E+00
  0.000000E+00
  0.000000E+00
  0.000000E+00
  0.000000E+00
  0.000000E+00
  0.000000E+00
  0.000000E+00
  0.000000E+00
  0.000000E+00
  0.000000E+00
  0.000000E+00
  0.000000E+00
  0.000000E+00
  0.000000E+00
  0.000000E+00
  0.000000E+00
  0.000000E+00
  0.000000E+00
  0.000000E+00
  0.000000E+00
  0.000000E+00
  0.000000E+00
  0.000000E+00
  0.000000E+00
  0.000000E+00
  0.000000E+00
  0.000000E+00
  0.000000E+00
  0.000000E+00
  0.000000E+00
  0.000000E+00
  0.000000E+00
  0.000000E+00
  0.000000E+00
  0.000000E+00
  0.000000E+00
  0.000000E+00
  0.000000E+00
  0.000000E+00
  0.000000E+00
  0.000000E+00
  0.000000E+00
  0.000000E+00
  0.000000E+00
  0.000000E+00
  0.000000E+00
  0.000000E+00
  0.000000E+00
  0.000000E+00
  0.000000E+00
  0.000000E+00
  0.000000E+00
  0.000000E+00
  0.000000E+00
  0.000000E+00
  0.000000E+00
  0.000000E+00
  0.000000E+00
  0.000000E+00
  0.000000E+00
  0.000000E+00
  0.000000E+00
  0.000000E+00
  0.000000E+00
  0.000000E+00
  0.000000E+00
  0.000000E+00
  0.000000E+00
  0.000000E+00
  0.000000E+00
  0.000000E+00
  0.000000E+00
  0.000000E+00
  0.000000E+00
  0.000000E+00
  0.000000E+00
  0.000000E+00
  0.000000E+00
  0.000000E+00
  0.000000E+00
  0.000000E+00
  0.000000E+00
  0.000000E+00
  0.000000E+00
  0.000000E+00
  0.000000E+00
  0.000000E+00
  0.000000E+00
  0.000000E+00
  0.000000E+00
  0.000000E+00
  0.000000E+00
  0.000000E+00
  0.000000E+00
  0.000000E+00
  0.000000E+00
  0.000000E+00
  0.000000E+00
  0.000000E+00
  0.000000E+00
  0.000000E+00
  0.000000E+00
  0.000000E+00
  0.000000E+00
  0.000000E+00
  0.000000E+00
  0.000000E+00
  0.000000E+00
  0.000000E+00
  0.000000E+00
  0.000000E+00
  0.000000E+00
  0.000000E+00
  0.000000E+00
  0.000000E+00
  0.000000E+00
  0.000000E+00
  0.000000E+00
  0.000000E+00
  0.000000E+00
  0.000000E+00
  0.000000E+00
  0.000000E+00
  0.000000E+00
  0.000000E+00
  0.000000E+00
  0.000000E+00
  0.000000E+00
  0.000000E+00
  0.000000E+00
  0.000000E+00
  0.000000E+00
  0.000000E+00
  0.000000E+00
  0.000000E+00
  0.000000E+00
  0.000000E+00
  0.000000E+00
  0.000000E+00
  0.000000E+00
  0.000000E+00
  0.000000E+00
  0.000000E+00
  0.000000E+00
  0.000000E+00
  0.000000E+00
  0.000000E+00
  0.000000E+00
  0.000000E+00
  0.000000E+00
  0.000000E+00
  0.000000E+00
  0.000000E+00
  0.000000E+00
  0.000000E+00
  0.000000E+00
  0.000000E+00
  0.000000E+00
  0.000000E+00
  0.000000E+00
  0.000000E+00
  0.000000E+00
  0.000000E+00
  0.000000E+00
  0.000000E+00
  0.000000E+00
  0.000000E+00
  0.000000E+00
  0.000000E+00
  0.000000E+00
  0.000000E+00
  0.000000E+00
  0.000000E+00
  0.000000E+00
  0.000000E+00
  0.000000E+00
  0.000000E+00
  0.000000E+00
  0.000000E+00
  0.000000E+00
  0.000000E+00
  0.000000E+00
  0.000000E+00
  0.000000E+00
  0.000000E+00
  0.000000E+00
  0.000000E+00
  0.000000E+00
  0.000000E+00
  0.000000E+00
  0.000000E+00
  0.000000E+00
  0.000000E+00
  0.000000E+00
  0.000000E+00
  0.000000E+00
  0.000000E+00
  0.000000E+00
  0.000000E+00
  0.000000E+00
  0.000000E+00
  0.000000E+00
  0.000000E+00
  0.000000E+00
  0.000000E+00
  0.000000E+00
  0.000000E+00
  0.000000E+00
  0.000000E+00
  0.000000E+00
  0.000000E+00
  0.000000E+00
  0.000000E+00
  0.000000E+00
  0.000000E+00
  0.000000E+00
  0.000000E+00
  0.000000E+00
  0.000000E+00
  0.000000E+00
  0.000000E+00
  0.000000E+00
  0.000000E+00
  0.000000E+00
  0.000000E+00
  0.000000E+00
  0.000000E+00
  0.000000E+00
  0.000000E+00
  0.000000E+00
  0.000000E+00
  0.000000E+00
  0.000000E+00
  0.000000E+00
  0.000000E+00
  0.000000E+00
  0.000000E+00
  0.000000E+00
  0.000000E+00
  0.000000E+00
  0.000000E+00
  0.000000E+00
  0.000000E+00
  0.000000E+00
  0.000000E+00
  0.000000E+00
  0.000000E+00
  0.000000E+00
  0.000000E+00
  0.000000E+00
  0.000000E+00
  0.000000E+00
  0.000000E+00
  0.000000E+00
  0.000000E+00
  0.000000E+00
  0.000000E+00
  0.000000E+00
  0.000000E+00
  0.000000E+00
  0.000000E+00
  0.000000E+00
  0.000000E+00
  0.000000E+00
  0.000000E+00
  0.000000E+00
  0.000000E+00
  0.000000E+00
  0.000000E+00
  0.000000E+00
  0.000000E+00
  0.000000E+00
  0.000000E+00
  0.000000E+00
  0.000000E+00
  0.000000E+00
  0.000000E+00
  0.000000E+00
  0.000000E+00
  0.000000E+00
  0.000000E+00
  0.000000E+00
  0.000000E+00
  0.000000E+00
  0.000000E+00
  0.000000E+00
  0.000000E+00
  0.000000E+00
  0.000000E+00
  0.000000E+00
  0.000000E+00
  0.000000E+00
  0.000000E+00
  0.000000E+00
  0.000000E+00
  0.000000E+00
  0.508000E+00
  0.538474E+00
  0.568949E+00
  0.599423E+00
  0.629898E+00
  0.660372E+00
  0.690846E+00
  0.721321E+00
  0.751795E+00
  0.782269E+00
  0.812744E+00
  0.843218E+00
  0.873693E+00
  0.904167E+00
  0.934641E+00
  0.965116E+00
  0.995590E+00
  0.102606E+01
  0.105654E+01
  0.108701E+01
  0.111749E+01
  0.114796E+01
  0.117844E+01
  0.120891E+01
  0.123939E+01
  0.126986E+01
  0.130033E+01
  0.133081E+01
  0.136128E+01
  0.139176E+01
  0.142223E+01
  0.145271E+01
  0.148318E+01
  0.151365E+01
  0.154413E+01
  0.157460E+01
  0.160508E+01
  0.163555E+01
  0.166603E+01
  0.169650E+01
  0.172698E+01
  0.175745E+01
  0.178792E+01
  0.181840E+01
  0.184887E+01
  0.187935E+01
  0.190982E+01
  0.194030E+01
  0.197077E+01
  0.200124E+01
  0.203172E+01
  0.206219E+01
  0.209267E+01
  0.212314E+01
  0.215362E+01
  0.218409E+01
  0.221457E+01
  0.224504E+01
  0.227551E+01
  0.230599E+01
  0.233646E+01
  0.236694E+01
  0.239741E+01
  0.242789E+01
  0.245836E+01
  0.248883E+01
  0.251931E+01
  0.254978E+01
  0.258026E+01
  0.261073E+01
  0.264121E+01
  0.267168E+01
  0.270216E+01
  0.273263E+01
  0.276310E+01
  0.279358E+01
  0.282405E+01
  0.285453E+01
  0.288500E+01
  0.291548E+01
  0.294595E+01
  0.297642E+01
  0.300690E+01
  0.303737E+01
  0.306785E+01
  0.309832E+01
  0.312880E+01
  0.315927E+01
  0.318975E+01
  0.322022E+01
  0.325069E+01
  0.328117E+01
  0.331164E+01
  0.334212E+01
  0.337259E+01
  0.340307E+01
  0.343354E+01
  0.346401E+01
  0.349449E+01
  0.352496E+01
  0.355544E+01
  0.358591E+01
  0.361639E+01
  0.364686E+01
  0.367734E+01
  0.370781E+01
  0.373828E+01
  0.376876E+01
  0.379923E+01
  0.382971E+01
  0.386018E+01
  0.389066E+01
  0.392113E+01
  0.395160E+01
  0.398208E+01
  0.401255E+01
  0.404303E+01
  0.407350E+01
  0.410398E+01
  0.413445E+01
  0.416493E+01
  0.419540E+01
  0.422587E+01
  0.425635E+01
  0.428682E+01
  0.431730E+01
  0.434777E+01
  0.437825E+01
  0.440872E+01
  0.443919E+01
  0.446967E+01
  0.450014E+01
  0.453062E+01
  0.456109E+01
  0.459157E+01
  0.462204E+01
  0.465252E+01
  0.468299E+01
  0.471346E+01
  0.474394E+01
  0.477441E+01
  0.480489E+01
  0.483536E+01
  0.486584E+01
  0.489631E+01
  0.492678E+01
  0.495726E+01
  0.498773E+01
  0.501821E+01
  0.504868E+01
 -0.400971E+01
  0.459363E+01
  0.852278E+01
  0.152830E+02
  0.226010E+02
  0.318104E+02
  0.389062E+02
  0.456629E+02
  0.501970E+02
  0.548610E+02
  0.571599E+02
  0.570628E+02
  0.542299E+02
  0.520797E+02
  0.591109E+02
  0.732305E+02
  0.906963E+02
  0.104678E+03
  0.114326E+03
  0.121470E+03
  0.126058E+03
  0.132143E+03
  0.138608E+03
  0.145345E+03
  0.152810E+03
  0.157039E+03
  0.164554E+03
  0.162088E+03
  0.157491E+03
  0.154170E+03
  0.150742E+03
  0.146492E+03
  0.141989E+03
  0.137350E+03
  0.132105E+03
  0.127231E+03
  0.122290E+03
  0.117204E+03
  0.112064E+03
  0.107110E+03
  0.102375E+03
  0.973622E+02
  0.925567E+02
  0.879894E+02
  0.835915E+02
  0.792951E+02
  0.752550E+02
  0.715353E+02
  0.679275E+02
  0.647133E+02
  0.615855E+02
  0.586779E+02
  0.559835E+02
  0.534544E+02
  0.510782E+02
  0.487007E+02
  0.465089E+02
  0.445572E+02
  0.429003E+02
  0.413644E+02
  0.399023E+02
  0.385089E+02
  0.374035E+02
  0.364083E+02
  0.355033E+02
  0.347712E+02
  0.340244E+02
  0.333300E+02
  0.327558E+02
  0.322674E+02
  0.318195E+02
  0.314271E+02
  0.312510E+02
  0.311558E+02
  0.311133E+02
  0.309250E+02
  0.307250E+02
  0.306369E+02
  0.305709E+02
  0.305099E+02
  0.303928E+02
  0.302679E+02
  0.301295E+02
  0.299181E+02
  0.297116E+02
  0.294978E+02
  0.292257E+02
  0.289651E+02
  0.287134E+02
  0.284628E+02
  0.281587E+02
  0.277637E+02
  0.273914E+02
  0.270029E+02
  0.265902E+02
  0.261418E+02
  0.256807E+02
  0.252070E+02
  0.246862E+02
  0.241434E+02
  0.235806E+02
  0.230012E+02
  0.224933E+02
  0.219966E+02
  0.214822E+02
  0.209077E+02
  0.203382E+02
  0.197802E+02
  0.192518E+02
  0.187031E+02
  0.181649E+02
  0.176232E+02
  0.170860E+02
  0.165791E+02
  0.160651E+02
  0.155686E+02
  0.150729E+02
  0.146040E+02
  0.141358E+02
  0.136688E+02
  0.132173E+02
  0.127704E+02
  0.123280E+02
  0.118843E+02
  0.114337E+02
  0.109796E+02
  0.105064E+02
  0.100345E+02
  0.951635E+01
  0.898746E+01
  0.844378E+01
  0.784518E+01
  0.722027E+01
  0.658029E+01
  0.593451E+01
  0.527045E+01
  0.465174E+01
  0.415170E+01
  0.385032E+01
  0.390937E+01
  0.445015E+01
  0.559121E+01
  0.736699E+01
  0.961734E+01
  0.120531E+02
  0.140930E+02
  0.149254E+02
  0.140337E+02
  0.107734E+02
 -0.435872E-04
  0.932071E+02
  0.218215E+02
  0.343641E+02
  0.361370E+02
  0.387203E+02
  0.453475E+02
  0.487525E+02
  0.531369E+02
  0.549886E+02
  0.548256E+02
  0.550839E+02
  0.575137E+02
  0.600988E+02
  0.749498E+02
  0.894722E+02
  0.977636E+02
  0.115151E+03
  0.132173E+03
  0.154632E+03
  0.178690E+03
  0.196785E+03
  0.213229E+03
  0.226939E+03
  0.239828E+03
  0.258863E+03
  0.266055E+03
  0.302265E+03
  0.305223E+03
  0.304306E+03
  0.310780E+03
  0.318044E+03
  0.322760E+03
  0.328892E+03
  0.336396E+03
  0.338120E+03
  0.341784E+03
  0.342999E+03
  0.346157E+03
  0.345784E+03
  0.346509E+03
  0.347012E+03
  0.341857E+03
  0.335841E+03
  0.332944E+03
  0.328057E+03
  0.322699E+03
  0.319121E+03
  0.314399E+03
  0.305529E+03
  0.297014E+03
  0.296494E+03
  0.295363E+03
  0.291393E+03
  0.285210E+03
  0.280152E+03
  0.278632E+03
  0.277716E+03
  0.276258E+03
  0.272633E+03
  0.270120E+03
  0.268773E+03
  0.268458E+03
  0.268015E+03
  0.267650E+03
  0.267149E+03
  0.266129E+03
  0.266925E+03
  0.268239E+03
  0.269369E+03
  0.270146E+03
  0.271434E+03
  0.274117E+03
  0.275339E+03
  0.276123E+03
  0.276739E+03
  0.279835E+03
  0.283505E+03
  0.286336E+03
  0.288935E+03
  0.291482E+03
  0.294323E+03
  0.296905E+03
  0.299338E+03
  0.302374E+03
  0.304974E+03
  0.307157E+03
  0.309782E+03
  0.312135E+03
  0.314150E+03
  0.315584E+03
  0.317266E+03
  0.319278E+03
  0.320372E+03
  0.321457E+03
  0.322644E+03
  0.323285E+03
  0.323663E+03
  0.323785E+03
  0.323635E+03
  0.323394E+03
  0.323140E+03
  0.323326E+03
  0.322396E+03
  0.321011E+03
  0.319495E+03
  0.319284E+03
  0.318690E+03
  0.317716E+03
  0.316408E+03
  0.315116E+03
  0.313794E+03
  0.312524E+03
  0.311222E+03
  0.309694E+03
  0.308182E+03
  0.306758E+03
  0.305334E+03
  0.303810E+03
  0.302154E+03
  0.300565E+03
  0.299093E+03
  0.297463E+03
  0.295624E+03
  0.293850E+03
  0.292103E+03
  0.290210E+03
  0.288203E+03
  0.286089E+03
  0.283799E+03
  0.281299E+03
  0.278547E+03
  0.275385E+03
  0.271858E+03
  0.267610E+03
  0.262665E+03
  0.256736E+03
  0.249471E+03
  0.240489E+03
  0.229605E+03
  0.216431E+03
  0.201128E+03
  0.184301E+03
  0.166090E+03
  0.147879E+03
  0.130966E+03
  0.116527E+03
  0.104454E+03
  0.910513E+02
  0.587947E+02
  0.855666E-05
 -0.850778E-01
  0.974674E-01
  0.180836E+00
  0.324274E+00
  0.479548E+00
  0.674953E+00
  0.825510E+00
  0.968875E+00
  0.106508E+01
  0.116404E+01
  0.121282E+01
  0.121076E+01
  0.115065E+01
  0.110503E+01
  0.125421E+01
  0.155380E+01
  0.192439E+01
  0.222106E+01
  0.242577E+01
  0.257736E+01
  0.267469E+01
  0.280380E+01
  0.294097E+01
  0.308393E+01
  0.324231E+01
  0.333205E+01
  0.349150E+01
  0.343917E+01
  0.334163E+01
  0.327117E+01
  0.319843E+01
  0.310826E+01
  0.301272E+01
  0.291429E+01
  0.280300E+01
  0.269959E+01
  0.259475E+01
  0.248683E+01
  0.237776E+01
  0.227265E+01
  0.217220E+01
  0.206583E+01
  0.196386E+01
  0.186696E+01
  0.177364E+01
  0.168248E+01
  0.159676E+01
  0.151783E+01
  0.144128E+01
  0.137308E+01
  0.130672E+01
  0.124502E+01
  0.118786E+01
  0.113419E+01
  0.108377E+01
  0.103333E+01
  0.986824E+00
  0.945412E+00
  0.910257E+00
  0.877668E+00
  0.846645E+00
  0.817079E+00
  0.793625E+00
  0.772511E+00
  0.753307E+00
  0.737774E+00
  0.721928E+00
  0.707194E+00
  0.695011E+00
  0.684648E+00
  0.675145E+00
  0.666818E+00
  0.663083E+00
  0.661064E+00
  0.660160E+00
  0.656166E+00
  0.651922E+00
  0.650054E+00
  0.648652E+00
  0.647358E+00
  0.644874E+00
  0.642223E+00
  0.639287E+00
  0.634801E+00
  0.630420E+00
  0.625884E+00
  0.620110E+00
  0.614579E+00
  0.609240E+00
  0.603922E+00
  0.597470E+00
  0.589089E+00
  0.581189E+00
  0.572947E+00
  0.564190E+00
  0.554676E+00
  0.544892E+00
  0.534842E+00
  0.523790E+00
  0.512274E+00
  0.500332E+00
  0.488038E+00
  0.477262E+00
  0.466723E+00
  0.455809E+00
  0.443619E+00
  0.431535E+00
  0.419695E+00
  0.408485E+00
  0.396841E+00
  0.385423E+00
  0.373928E+00
  0.362530E+00
  0.351776E+00
  0.340868E+00
  0.330334E+00
  0.319817E+00
  0.309868E+00
  0.299934E+00
  0.290023E+00
  0.280443E+00
  0.270961E+00
  0.261575E+00
  0.252160E+00
  0.242599E+00
  0.232964E+00
  0.222924E+00
  0.212912E+00
  0.201917E+00
  0.190696E+00
  0.179160E+00
  0.166459E+00
  0.153199E+00
  0.139620E+00
  0.125918E+00
  0.111828E+00
  0.987004E-01
  0.880907E-01
  0.816960E-01
  0.829490E-01
  0.944232E-01
  0.118634E+00
  0.156313E+00
  0.204060E+00
  0.255743E+00
  0.299024E+00
  0.316686E+00
  0.297767E+00
  0.228589E+00
 -0.924833E-06
  0.363567E+00
  0.851176E-01
  0.134042E+00
  0.140957E+00
  0.151034E+00
  0.176884E+00
  0.190166E+00
  0.207267E+00
  0.214490E+00
  0.213855E+00
  0.214862E+00
  0.224340E+00
  0.234423E+00
  0.292352E+00
  0.348999E+00
  0.381340E+00
  0.449162E+00
  0.515560E+00
  0.603162E+00
  0.697004E+00
  0.767586E+00
  0.831729E+00
  0.885205E+00
  0.935482E+00
  0.100973E+01
  0.103778E+01
  0.117902E+01
  0.119056E+01
  0.118699E+01
  0.121224E+01
  0.124057E+01
  0.125897E+01
  0.128289E+01
  0.131216E+01
  0.131888E+01
  0.133317E+01
  0.133791E+01
  0.135023E+01
  0.134878E+01
  0.135161E+01
  0.135357E+01
  0.133346E+01
  0.130999E+01
  0.129869E+01
  0.127963E+01
  0.125873E+01
  0.124478E+01
  0.122635E+01
  0.119176E+01
  0.115854E+01
  0.115651E+01
  0.115210E+01
  0.113662E+01
  0.111250E+01
  0.109277E+01
  0.108684E+01
  0.108327E+01
  0.107758E+01
  0.106344E+01
  0.105364E+01
  0.104839E+01
  0.104716E+01
  0.104543E+01
  0.104401E+01
  0.104205E+01
  0.103807E+01
  0.104118E+01
  0.104630E+01
  0.105071E+01
  0.105374E+01
  0.105876E+01
  0.106923E+01
  0.107399E+01
  0.107705E+01
  0.107946E+01
  0.109154E+01
  0.110585E+01
  0.111689E+01
  0.112703E+01
  0.113696E+01
  0.114805E+01
  0.115812E+01
  0.116761E+01
  0.117945E+01
  0.118959E+01
  0.119811E+01
  0.120835E+01
  0.121752E+01
  0.122539E+01
  0.123098E+01
  0.123754E+01
  0.124539E+01
  0.124965E+01
  0.125389E+01
  0.125852E+01
  0.126102E+01
  0.126249E+01
  0.126297E+01
  0.126238E+01
  0.126144E+01
  0.126045E+01
  0.126118E+01
  0.125755E+01
  0.125214E+01
  0.124623E+01
  0.124541E+01
  0.124309E+01
  0.123930E+01
  0.123419E+01
  0.122915E+01
  0.122400E+01
  0.121904E+01
  0.121396E+01
  0.120800E+01
  0.120211E+01
  0.119655E+01
  0.119100E+01
  0.118505E+01
  0.117859E+01
  0.117239E+01
  0.116665E+01
  0.116029E+01
  0.115312E+01
  0.114620E+01
  0.113939E+01
  0.113200E+01
  0.112417E+01
  0.111593E+01
  0.110699E+01
  0.109724E+01
  0.108651E+01
  0.107418E+01
  0.106042E+01
  0.104385E+01
  0.102456E+01
  0.100143E+01
  0.973096E+00
  0.938058E+00
  0.895606E+00
  0.844218E+00
  0.784526E+00
  0.718890E+00
  0.647858E+00
  0.576822E+00
  0.510852E+00
  0.454529E+00
  0.407438E+00
  0.355158E+00
  0.229336E+00
  0.333764E-07
 -0.133109E+00
  0.153114E+00
  0.285258E+00
  0.513656E+00
  0.762730E+00
  0.108164E+01
  0.133855E+01
  0.159343E+01
  0.178573E+01
  0.197032E+01
  0.200595E+01
  0.188896E+01
  0.165838E+01
  0.144443E+01
  0.148006E+01
  0.165048E+01
  0.183979E+01
  0.191578E+01
  0.189444E+01
  0.183012E+01
  0.174160E+01
  0.168601E+01
  0.164645E+01
  0.162440E+01
  0.162300E+01
  0.160353E+01
  0.164446E+01
  0.161303E+01
  0.157428E+01
  0.154797E+01
  0.152027E+01
  0.148391E+01
  0.144458E+01
  0.140336E+01
  0.135549E+01
  0.131107E+01
  0.126572E+01
  0.121854E+01
  0.117040E+01
  0.112375E+01
  0.107899E+01
  0.103082E+01
  0.984445E+00
  0.940129E+00
  0.897210E+00
  0.854964E+00
  0.815086E+00
  0.778307E+00
  0.742408E+00
  0.710528E+00
  0.679286E+00
  0.650184E+00
  0.623173E+00
  0.597763E+00
  0.573871E+00
  0.549720E+00
  0.527452E+00
  0.507709E+00
  0.491143E+00
  0.475870E+00
  0.461296E+00
  0.447379E+00
  0.436708E+00
  0.427218E+00
  0.418696E+00
  0.412134E+00
  0.405327E+00
  0.399075E+00
  0.394203E+00
  0.390316E+00
  0.386883E+00
  0.384090E+00
  0.383922E+00
  0.384764E+00
  0.386279E+00
  0.385991E+00
  0.385551E+00
  0.386516E+00
  0.387769E+00
  0.389100E+00
  0.389726E+00
  0.390256E+00
  0.390616E+00
  0.390017E+00
  0.389473E+00
  0.388827E+00
  0.387391E+00
  0.386087E+00
  0.384888E+00
  0.383726E+00
  0.381820E+00
  0.378652E+00
  0.375752E+00
  0.372591E+00
  0.369057E+00
  0.364981E+00
  0.360678E+00
  0.356146E+00
  0.350888E+00
  0.345253E+00
  0.339260E+00
  0.332951E+00
  0.327606E+00
  0.322364E+00
  0.316793E+00
  0.310260E+00
  0.303719E+00
  0.297266E+00
  0.291180E+00
  0.284704E+00
  0.278307E+00
  0.271770E+00
  0.265219E+00
  0.259057E+00
  0.252704E+00
  0.246543E+00
  0.240306E+00
  0.234409E+00
  0.228441E+00
  0.222404E+00
  0.216541E+00
  0.210675E+00
  0.204810E+00
  0.198848E+00
  0.192685E+00
  0.186373E+00
  0.179642E+00
  0.172835E+00
  0.165124E+00
  0.157110E+00
  0.148715E+00
  0.139218E+00
  0.129106E+00
  0.118566E+00
  0.107753E+00
  0.964290E-01
  0.857667E-01
  0.771434E-01
  0.721048E-01
  0.737915E-01
  0.846841E-01
  0.107275E+00
  0.142520E+00
  0.187614E+00
  0.237120E+00
  0.279635E+00
  0.298719E+00
  0.283332E+00
  0.219427E+00
 -0.808195E-01
  0.309417E+01
  0.727352E+00
  0.115017E+01
  0.121455E+01
  0.130672E+01
  0.154194E+01
  0.167732E+01
  0.185423E+01
  0.195619E+01
  0.196905E+01
  0.193309E+01
  0.190389E+01
  0.183786E+01
  0.207872E+01
  0.224027E+01
  0.220342E+01
  0.233586E+01
  0.241899E+01
  0.256232E+01
  0.269221E+01
  0.271876E+01
  0.272059E+01
  0.269569E+01
  0.268036E+01
  0.274939E+01
  0.271671E+01
  0.302067E+01
  0.303747E+01
  0.304185E+01
  0.312044E+01
  0.320757E+01
  0.326945E+01
  0.334611E+01
  0.343710E+01
  0.346934E+01
  0.352195E+01
  0.355010E+01
  0.359889E+01
  0.361140E+01
  0.363541E+01
  0.365734E+01
  0.361938E+01
  0.357205E+01
  0.355736E+01
  0.352112E+01
  0.347935E+01
  0.345640E+01
  0.342067E+01
  0.333926E+01
  0.326110E+01
  0.327032E+01
  0.327279E+01
  0.324360E+01
  0.318941E+01
  0.314755E+01
  0.314512E+01
  0.314955E+01
  0.314783E+01
  0.312124E+01
  0.310755E+01
  0.310720E+01
  0.311883E+01
  0.312924E+01
  0.314063E+01
  0.315054E+01
  0.315435E+01
  0.317984E+01
  0.321174E+01
  0.324175E+01
  0.326776E+01
  0.330028E+01
  0.335015E+01
  0.338256E+01
  0.341002E+01
  0.343579E+01
  0.349277E+01
  0.355755E+01
  0.361242E+01
  0.366493E+01
  0.371734E+01
  0.377410E+01
  0.382811E+01
  0.388079E+01
  0.394179E+01
  0.399774E+01
  0.404880E+01
  0.410620E+01
  0.416057E+01
  0.421102E+01
  0.425460E+01
  0.430200E+01
  0.435444E+01
  0.439484E+01
  0.443552E+01
  0.447811E+01
  0.451357E+01
  0.454576E+01
  0.457471E+01
  0.460013E+01
  0.462456E+01
  0.464909E+01
  0.468027E+01
  0.469557E+01
  0.470447E+01
  0.471152E+01
  0.473802E+01
  0.475913E+01
  0.477480E+01
  0.478560E+01
  0.479680E+01
  0.480768E+01
  0.481951E+01
  0.483097E+01
  0.483911E+01
  0.484771E+01
  0.485780E+01
  0.486791E+01
  0.487645E+01
  0.488292E+01
  0.489049E+01
  0.490012E+01
  0.490730E+01
  0.491133E+01
  0.491673E+01
  0.492265E+01
  0.492618E+01
  0.492781E+01
  0.492762E+01
  0.492437E+01
  0.491740E+01
  0.490589E+01
  0.488691E+01
  0.486112E+01
  0.482189E+01
  0.476919E+01
  0.469729E+01
  0.459964E+01
  0.446855E+01
  0.429981E+01
  0.408525E+01
  0.382736E+01
  0.353605E+01
  0.321314E+01
  0.288480E+01
  0.257649E+01
  0.231214E+01
  0.209057E+01
  0.183827E+01
  0.119750E+01
  0.158658E-01
 -0.133412E+00
  0.153863E+00
  0.286306E+00
  0.514851E+00
  0.763863E+00
  0.108257E+01
  0.133915E+01
  0.159362E+01
  0.178550E+01
  0.196978E+01
  0.200552E+01
  0.188945E+01
  0.166027E+01
  0.144679E+01
  0.148188E+01
  0.165098E+01
  0.183876E+01
  0.191351E+01
  0.189140E+01
  0.182667E+01
  0.173803E+01
  0.168248E+01
  0.164299E+01
  0.162100E+01
  0.161966E+01
  0.160031E+01
  0.164143E+01
  0.161023E+01
  0.157162E+01
  0.154543E+01
  0.151785E+01
  0.148162E+01
  0.144242E+01
  0.140135E+01
  0.135363E+01
  0.130938E+01
  0.126421E+01
  0.121723E+01
  0.116933E+01
  0.112292E+01
  0.107842E+01
  0.103052E+01
  0.984419E+00
  0.940381E+00
  0.897725E+00
  0.855740E+00
  0.816109E+00
  0.779561E+00
  0.743887E+00
  0.712213E+00
  0.681182E+00
  0.652278E+00
  0.625457E+00
  0.600230E+00
  0.576516E+00
  0.552542E+00
  0.530446E+00
  0.510870E+00
  0.494470E+00
  0.479351E+00
  0.464929E+00
  0.451163E+00
  0.440634E+00
  0.431284E+00
  0.422899E+00
  0.416468E+00
  0.409789E+00
  0.403662E+00
  0.398907E+00
  0.395131E+00
  0.391805E+00
  0.389112E+00
  0.389038E+00
  0.389968E+00
  0.391567E+00
  0.391359E+00
  0.390997E+00
  0.392035E+00
  0.393358E+00
  0.394757E+00
  0.395447E+00
  0.396038E+00
  0.396459E+00
  0.395920E+00
  0.395437E+00
  0.394851E+00
  0.393478E+00
  0.392238E+00
  0.391105E+00
  0.390015E+00
  0.388184E+00
  0.385094E+00
  0.382279E+00
  0.379207E+00
  0.375765E+00
  0.371790E+00
  0.367591E+00
  0.363164E+00
  0.358020E+00
  0.352501E+00
  0.346626E+00
  0.340443E+00
  0.335224E+00
  0.330112E+00
  0.324677E+00
  0.318282E+00
  0.311886E+00
  0.305582E+00
  0.299646E+00
  0.293329E+00
  0.287089E+00
  0.280715E+00
  0.274331E+00
  0.268334E+00
  0.262157E+00
  0.256170E+00
  0.250114E+00
  0.244400E+00
  0.238620E+00
  0.232777E+00
  0.227111E+00
  0.221450E+00
  0.215793E+00
  0.210049E+00
  0.204113E+00
  0.198036E+00
  0.191559E+00
  0.185011E+00
  0.177592E+00
  0.169888E+00
  0.161826E+00
  0.152710E+00
  0.143016E+00
  0.132939E+00
  0.122646E+00
  0.111919E+00
  0.101930E+00
  0.940603E-01
  0.898538E-01
  0.924578E-01
  0.104339E+00
  0.127947E+00
  0.164233E+00
  0.210298E+00
  0.260686E+00
  0.304236E+00
  0.325007E+00
  0.312144E+00
  0.253153E+00
 -0.172069E-01
  0.308826E+01
  0.716379E+00
  0.113705E+01
  0.119991E+01
  0.129163E+01
  0.152670E+01
  0.166152E+01
  0.183752E+01
  0.193821E+01
  0.194967E+01
  0.191270E+01
  0.188362E+01
  0.181833E+01
  0.206144E+01
  0.222673E+01
  0.219434E+01
  0.233113E+01
  0.241753E+01
  0.256283E+01
  0.269367E+01
  0.272053E+01
  0.272236E+01
  0.269732E+01
  0.268181E+01
  0.275069E+01
  0.271795E+01
  0.302205E+01
  0.303885E+01
  0.304313E+01
  0.312156E+01
  0.320853E+01
  0.327027E+01
  0.334680E+01
  0.343766E+01
  0.346975E+01
  0.352219E+01
  0.355018E+01
  0.359881E+01
  0.361120E+01
  0.363509E+01
  0.365691E+01
  0.361883E+01
  0.357139E+01
  0.355661E+01
  0.352030E+01
  0.347846E+01
  0.345545E+01
  0.341965E+01
  0.333817E+01
  0.325996E+01
  0.326915E+01
  0.327161E+01
  0.324239E+01
  0.318817E+01
  0.314629E+01
  0.314384E+01
  0.314825E+01
  0.314652E+01
  0.311991E+01
  0.310621E+01
  0.310584E+01
  0.311746E+01
  0.312787E+01
  0.313925E+01
  0.314915E+01
  0.315297E+01
  0.317846E+01
  0.321038E+01
  0.324039E+01
  0.326641E+01
  0.329893E+01
  0.334881E+01
  0.338122E+01
  0.340866E+01
  0.343443E+01
  0.349142E+01
  0.355620E+01
  0.361107E+01
  0.366359E+01
  0.371601E+01
  0.377277E+01
  0.382678E+01
  0.387946E+01
  0.394047E+01
  0.399641E+01
  0.404746E+01
  0.410486E+01
  0.415921E+01
  0.420965E+01
  0.425322E+01
  0.430060E+01
  0.435304E+01
  0.439342E+01
  0.443411E+01
  0.447668E+01
  0.451215E+01
  0.454433E+01
  0.457328E+01
  0.459870E+01
  0.462312E+01
  0.464765E+01
  0.467883E+01
  0.469412E+01
  0.470301E+01
  0.471006E+01
  0.473655E+01
  0.475765E+01
  0.477333E+01
  0.478413E+01
  0.479532E+01
  0.480620E+01
  0.481803E+01
  0.482950E+01
  0.483763E+01
  0.484623E+01
  0.485632E+01
  0.486642E+01
  0.487497E+01
  0.488144E+01
  0.488900E+01
  0.489863E+01
  0.490581E+01
  0.490983E+01
  0.491524E+01
  0.492115E+01
  0.492468E+01
  0.492630E+01
  0.492610E+01
  0.492283E+01
  0.491584E+01
  0.490429E+01
  0.488527E+01
  0.485941E+01
  0.482011E+01
  0.476731E+01
  0.469529E+01
  0.459750E+01
  0.446625E+01
  0.429732E+01
  0.408255E+01
  0.382442E+01
  0.353286E+01
  0.320965E+01
  0.288099E+01
  0.257235E+01
  0.230766E+01
  0.208572E+01
  0.183302E+01
  0.119183E+01
  0.278289E-01
  0.303158E-03
 -0.748284E-03
 -0.104891E-02
 -0.119531E-02
 -0.113297E-02
 -0.931757E-03
 -0.592473E-03
 -0.192734E-03
  0.239189E-03
  0.538126E-03
  0.423773E-03
 -0.481465E-03
 -0.188174E-02
 -0.236654E-02
 -0.182227E-02
 -0.500402E-03
  0.103754E-02
  0.227102E-02
  0.304027E-02
  0.344903E-02
  0.357104E-02
  0.352863E-02
  0.346111E-02
  0.340030E-02
  0.334005E-02
  0.322275E-02
  0.303675E-02
  0.280911E-02
  0.265838E-02
  0.254225E-02
  0.242298E-02
  0.229343E-02
  0.215516E-02
  0.201182E-02
  0.185669E-02
  0.169180E-02
  0.150993E-02
  0.130482E-02
  0.107888E-02
  0.824066E-03
  0.564917E-03
  0.293662E-03
  0.253902E-04
 -0.251248E-03
 -0.515933E-03
 -0.775869E-03
 -0.102284E-02
 -0.125434E-02
 -0.147817E-02
 -0.168527E-02
 -0.189590E-02
 -0.209319E-02
 -0.228313E-02
 -0.246700E-02
 -0.264469E-02
 -0.282262E-02
 -0.299420E-02
 -0.316127E-02
 -0.332684E-02
 -0.348114E-02
 -0.363281E-02
 -0.378439E-02
 -0.392619E-02
 -0.406597E-02
 -0.420340E-02
 -0.433413E-02
 -0.446211E-02
 -0.458661E-02
 -0.470359E-02
 -0.481529E-02
 -0.492240E-02
 -0.502203E-02
 -0.511509E-02
 -0.520431E-02
 -0.528798E-02
 -0.536824E-02
 -0.544613E-02
 -0.551916E-02
 -0.558897E-02
 -0.565649E-02
 -0.572049E-02
 -0.578256E-02
 -0.584344E-02
 -0.590361E-02
 -0.596351E-02
 -0.602392E-02
 -0.608669E-02
 -0.615085E-02
 -0.621727E-02
 -0.628885E-02
 -0.636338E-02
 -0.644180E-02
 -0.652710E-02
 -0.661584E-02
 -0.670846E-02
 -0.680877E-02
 -0.691207E-02
 -0.701796E-02
 -0.713205E-02
 -0.724822E-02
 -0.736661E-02
 -0.749235E-02
 -0.761872E-02
 -0.774824E-02
 -0.788405E-02
 -0.802239E-02
 -0.816734E-02
 -0.831633E-02
 -0.846538E-02
 -0.862447E-02
 -0.878246E-02
 -0.894500E-02
 -0.911200E-02
 -0.927739E-02
 -0.945328E-02
 -0.962610E-02
 -0.980801E-02
 -0.999055E-02
 -0.101792E-01
 -0.103724E-01
 -0.105700E-01
 -0.107745E-01
 -0.109833E-01
 -0.112006E-01
 -0.114274E-01
 -0.116626E-01
 -0.119161E-01
 -0.121763E-01
 -0.124682E-01
 -0.127782E-01
 -0.131108E-01
 -0.134920E-01
 -0.139100E-01
 -0.143739E-01
 -0.148936E-01
 -0.154896E-01
 -0.161637E-01
 -0.169169E-01
 -0.177490E-01
 -0.186663E-01
 -0.196552E-01
 -0.206720E-01
 -0.217131E-01
 -0.226844E-01
 -0.235657E-01
 -0.246011E-01
 -0.262880E-01
 -0.288129E-01
 -0.337257E-01
 -0.636126E-01
  0.591874E-02
  0.109734E-01
  0.131219E-01
  0.146410E-01
  0.150845E-01
  0.152415E-01
  0.157967E-01
  0.167125E-01
  0.179810E-01
  0.193813E-01
  0.203926E-01
  0.202741E-01
  0.195281E-01
  0.172810E-01
  0.135413E-01
  0.907095E-02
  0.472955E-02
  0.145531E-02
 -0.508599E-03
 -0.146427E-02
 -0.177572E-02
 -0.176337E-02
 -0.162507E-02
 -0.144679E-02
 -0.129830E-02
 -0.124555E-02
 -0.137891E-02
 -0.138409E-02
 -0.127630E-02