 Title= "ADflow Lift Distribution Data"
Variables = "eta" "CoordinateX" "CoordinateY" "CoordinateZ" "Lift" "Drag" "Normalized Lift" "Normalized Drag" "CL" "CD" "CLp" "CDp" "CLv" "CDv" "Ellptical" "thickness" "twist" "chord" 
Zone T= "LiftDist_01 allWalls: : z normal"
 I=          150
 DATAPACKING=BLOCK
  0.000000E+00
  0.671141E-02
  0.134228E-01
  0.201342E-01
  0.268456E-01
  0.335570E-01
  0.402685E-01
  0.469799E-01
  0.536913E-01
  0.604027E-01
  0.671141E-01
  0.738255E-01
  0.805369E-01
  0.872483E-01
  0.939597E-01
  0.100671E+00
  0.107383E+00
  0.114094E+00
  0.120805E+00
  0.127517E+00
  0.134228E+00
  0.140940E+00
  0.147651E+00
  0.154362E+00
  0.161074E+00
  0.167785E+00
  0.174497E+00
  0.181208E+00
  0.187919E+00
  0.194631E+00
  0.201342E+00
  0.208054E+00
  0.214765E+00
  0.221477E+00
  0.228188E+00
  0.234899E+00
  0.241611E+00
  0.248322E+00
  0.255034E+00
  0.261745E+00
  0.268456E+00
  0.275168E+00
  0.281879E+00
  0.288591E+00
  0.295302E+00
  0.302013E+00
  0.308725E+00
  0.315436E+00
  0.322148E+00
  0.328859E+00
  0.335570E+00
  0.342282E+00
  0.348993E+00
  0.355705E+00
  0.362416E+00
  0.369128E+00
  0.375839E+00
  0.382550E+00
  0.389262E+00
  0.395973E+00
  0.402685E+00
  0.409396E+00
  0.416107E+00
  0.422819E+00
  0.429530E+00
  0.436242E+00
  0.442953E+00
  0.449664E+00
  0.456376E+00
  0.463087E+00
  0.469799E+00
  0.476510E+00
  0.483221E+00
  0.489933E+00
  0.496644E+00
  0.503356E+00
  0.510067E+00
  0.516779E+00
  0.523490E+00
  0.530201E+00
  0.536913E+00
  0.543624E+00
  0.550336E+00
  0.557047E+00
  0.563758E+00
  0.570470E+00
  0.577181E+00
  0.583893E+00
  0.590604E+00
  0.597315E+00
  0.604027E+00
  0.610738E+00
  0.617450E+00
  0.624161E+00
  0.630872E+00
  0.637584E+00
  0.644295E+00
  0.651007E+00
  0.657718E+00
  0.664430E+00
  0.671141E+00
  0.677852E+00
  0.684564E+00
  0.691275E+00
  0.697987E+00
  0.704698E+00
  0.711409E+00
  0.718121E+00
  0.724832E+00
  0.731544E+00
  0.738255E+00
  0.744966E+00
  0.751678E+00
  0.758389E+00
  0.765101E+00
  0.771812E+00
  0.778523E+00
  0.785235E+00
  0.791946E+00
  0.798658E+00
  0.805369E+00
  0.812081E+00
  0.818792E+00
  0.825503E+00
  0.832215E+00
  0.838926E+00
  0.845638E+00
  0.852349E+00
  0.859060E+00
  0.865772E+00
  0.872483E+00
  0.879195E+00
  0.885906E+00
  0.892617E+00
  0.899329E+00
  0.906040E+00
  0.912752E+00
  0.919463E+00
  0.926174E+00
  0.932886E+00
  0.939597E+00
  0.946309E+00
  0.953020E+00
  0.959732E+00
  0.966443E+00
  0.973154E+00
  0.979866E+00
  0.986577E+00
  0.993289E+00
  0.100000E+01
  0.000000E+00
  0.000000E+00
  0.000000E+00
  0.000000E+00
  0.000000E+00
  0.000000E+00
  0.000000E+00
  0.000000E+00
  0.000000E+00
  0.000000E+00
  0.000000E+00
  0.000000E+00
  0.000000E+00
  0.000000E+00
  0.000000E+00
  0.000000E+00
  0.000000E+00
  0.000000E+00
  0.000000E+00
  0.000000E+00
  0.000000E+00
  0.000000E+00
  0.000000E+00
  0.000000E+00
  0.000000E+00
  0.000000E+00
  0.000000E+00
  0.000000E+00
  0.000000E+00
  0.000000E+00
  0.000000E+00
  0.000000E+00
  0.000000E+00
  0.000000E+00
  0.000000E+00
  0.000000E+00
  0.000000E+00
  0.000000E+00
  0.000000E+00
  0.000000E+00
  0.000000E+00
  0.000000E+00
  0.000000E+00
  0.000000E+00
  0.000000E+00
  0.000000E+00
  0.000000E+00
  0.000000E+00
  0.000000E+00
  0.000000E+00
  0.000000E+00
  0.000000E+00
  0.000000E+00
  0.000000E+00
  0.000000E+00
  0.000000E+00
  0.000000E+00
  0.000000E+00
  0.000000E+00
  0.000000E+00
  0.000000E+00
  0.000000E+00
  0.000000E+00
  0.000000E+00
  0.000000E+00
  0.000000E+00
  0.000000E+00
  0.000000E+00
  0.000000E+00
  0.000000E+00
  0.000000E+00
  0.000000E+00
  0.000000E+00
  0.000000E+00
  0.000000E+00
  0.000000E+00
  0.000000E+00
  0.000000E+00
  0.000000E+00
  0.000000E+00
  0.000000E+00
  0.000000E+00
  0.000000E+00
  0.000000E+00
  0.000000E+00
  0.000000E+00
  0.000000E+00
  0.000000E+00
  0.000000E+00
  0.000000E+00
  0.000000E+00
  0.000000E+00
  0.000000E+00
  0.000000E+00
  0.000000E+00
  0.000000E+00
  0.000000E+00
  0.000000E+00
  0.000000E+00
  0.000000E+00
  0.000000E+00
  0.000000E+00
  0.000000E+00
  0.000000E+00
  0.000000E+00
  0.000000E+00
  0.000000E+00
  0.000000E+00
  0.000000E+00
  0.000000E+00
  0.000000E+00
  0.000000E+00
  0.000000E+00
  0.000000E+00
  0.000000E+00
  0.000000E+00
  0.000000E+00
  0.000000E+00
  0.000000E+00
  0.000000E+00
  0.000000E+00
  0.000000E+00
  0.000000E+00
  0.000000E+00
  0.000000E+00
  0.000000E+00
  0.000000E+00
  0.000000E+00
  0.000000E+00
  0.000000E+00
  0.000000E+00
  0.000000E+00
  0.000000E+00
  0.000000E+00
  0.000000E+00
  0.000000E+00
  0.000000E+00
  0.000000E+00
  0.000000E+00
  0.000000E+00
  0.000000E+00
  0.000000E+00
  0.000000E+00
  0.000000E+00
  0.000000E+00
  0.000000E+00
  0.000000E+00
  0.000000E+00
  0.000000E+00
  0.000000E+00
  0.000000E+00
  0.000000E+00
  0.000000E+00
  0.000000E+00
  0.000000E+00
  0.000000E+00
  0.000000E+00
  0.000000E+00
  0.000000E+00
  0.000000E+00
  0.000000E+00
  0.000000E+00
  0.000000E+00
  0.000000E+00
  0.000000E+00
  0.000000E+00
  0.000000E+00
  0.000000E+00
  0.000000E+00
  0.000000E+00
  0.000000E+00
  0.000000E+00
  0.000000E+00
  0.000000E+00
  0.000000E+00
  0.000000E+00
  0.000000E+00
  0.000000E+00
  0.000000E+00
  0.000000E+00
  0.000000E+00
  0.000000E+00
  0.000000E+00
  0.000000E+00
  0.000000E+00
  0.000000E+00
  0.000000E+00
  0.000000E+00
  0.000000E+00
  0.000000E+00
  0.000000E+00
  0.000000E+00
  0.000000E+00
  0.000000E+00
  0.000000E+00
  0.000000E+00
  0.000000E+00
  0.000000E+00
  0.000000E+00
  0.000000E+00
  0.000000E+00
  0.000000E+00
  0.000000E+00
  0.000000E+00
  0.000000E+00
  0.000000E+00
  0.000000E+00
  0.000000E+00
  0.000000E+00
  0.000000E+00
  0.000000E+00
  0.000000E+00
  0.000000E+00
  0.000000E+00
  0.000000E+00
  0.000000E+00
  0.000000E+00
  0.000000E+00
  0.000000E+00
  0.000000E+00
  0.000000E+00
  0.000000E+00
  0.000000E+00
  0.000000E+00
  0.000000E+00
  0.000000E+00
  0.000000E+00
  0.000000E+00
  0.000000E+00
  0.000000E+00
  0.000000E+00
  0.000000E+00
  0.000000E+00
  0.000000E+00
  0.000000E+00
  0.000000E+00
  0.000000E+00
  0.000000E+00
  0.000000E+00
  0.000000E+00
  0.000000E+00
  0.000000E+00
  0.000000E+00
  0.000000E+00
  0.000000E+00
  0.000000E+00
  0.000000E+00
  0.000000E+00
  0.000000E+00
  0.000000E+00
  0.000000E+00
  0.000000E+00
  0.000000E+00
  0.000000E+00
  0.000000E+00
  0.000000E+00
  0.000000E+00
  0.000000E+00
  0.000000E+00
  0.000000E+00
  0.000000E+00
  0.000000E+00
  0.000000E+00
  0.000000E+00
  0.000000E+00
  0.000000E+00
  0.000000E+00
  0.000000E+00
  0.000000E+00
  0.000000E+00
  0.000000E+00
  0.000000E+00
  0.000000E+00
  0.000000E+00
  0.000000E+00
  0.000000E+00
  0.000000E+00
  0.000000E+00
  0.000000E+00
  0.000000E+00
  0.000000E+00
  0.000000E+00
  0.000000E+00
  0.000000E+00
  0.000000E+00
  0.000000E+00
  0.000000E+00
  0.000000E+00
  0.000000E+00
  0.000000E+00
  0.000000E+00
  0.000000E+00
  0.000000E+00
  0.000000E+00
  0.000000E+00
  0.000000E+00
  0.000000E+00
  0.000000E+00
  0.000000E+00
  0.000000E+00
  0.508000E+00
  0.538474E+00
  0.568949E+00
  0.599423E+00
  0.629898E+00
  0.660372E+00
  0.690846E+00
  0.721321E+00
  0.751795E+00
  0.782269E+00
  0.812744E+00
  0.843218E+00
  0.873693E+00
  0.904167E+00
  0.934641E+00
  0.965116E+00
  0.995590E+00
  0.102606E+01
  0.105654E+01
  0.108701E+01
  0.111749E+01
  0.114796E+01
  0.117844E+01
  0.120891E+01
  0.123939E+01
  0.126986E+01
  0.130033E+01
  0.133081E+01
  0.136128E+01
  0.139176E+01
  0.142223E+01
  0.145271E+01
  0.148318E+01
  0.151365E+01
  0.154413E+01
  0.157460E+01
  0.160508E+01
  0.163555E+01
  0.166603E+01
  0.169650E+01
  0.172698E+01
  0.175745E+01
  0.178792E+01
  0.181840E+01
  0.184887E+01
  0.187935E+01
  0.190982E+01
  0.194030E+01
  0.197077E+01
  0.200124E+01
  0.203172E+01
  0.206219E+01
  0.209267E+01
  0.212314E+01
  0.215362E+01
  0.218409E+01
  0.221457E+01
  0.224504E+01
  0.227551E+01
  0.230599E+01
  0.233646E+01
  0.236694E+01
  0.239741E+01
  0.242789E+01
  0.245836E+01
  0.248883E+01
  0.251931E+01
  0.254978E+01
  0.258026E+01
  0.261073E+01
  0.264121E+01
  0.267168E+01
  0.270216E+01
  0.273263E+01
  0.276310E+01
  0.279358E+01
  0.282405E+01
  0.285453E+01
  0.288500E+01
  0.291548E+01
  0.294595E+01
  0.297642E+01
  0.300690E+01
  0.303737E+01
  0.306785E+01
  0.309832E+01
  0.312880E+01
  0.315927E+01
  0.318975E+01
  0.322022E+01
  0.325069E+01
  0.328117E+01
  0.331164E+01
  0.334212E+01
  0.337259E+01
  0.340307E+01
  0.343354E+01
  0.346401E+01
  0.349449E+01
  0.352496E+01
  0.355544E+01
  0.358591E+01
  0.361639E+01
  0.364686E+01
  0.367734E+01
  0.370781E+01
  0.373828E+01
  0.376876E+01
  0.379923E+01
  0.382971E+01
  0.386018E+01
  0.389066E+01
  0.392113E+01
  0.395160E+01
  0.398208E+01
  0.401255E+01
  0.404303E+01
  0.407350E+01
  0.410398E+01
  0.413445E+01
  0.416493E+01
  0.419540E+01
  0.422587E+01
  0.425635E+01
  0.428682E+01
  0.431730E+01
  0.434777E+01
  0.437825E+01
  0.440872E+01
  0.443919E+01
  0.446967E+01
  0.450014E+01
  0.453062E+01
  0.456109E+01
  0.459157E+01
  0.462204E+01
  0.465252E+01
  0.468299E+01
  0.471346E+01
  0.474394E+01
  0.477441E+01
  0.480489E+01
  0.483536E+01
  0.486584E+01
  0.489631E+01
  0.492678E+01
  0.495726E+01
  0.498773E+01
  0.501821E+01
  0.504868E+01
 -0.711112E+01
  0.320521E+01
  0.417464E+01
  0.620562E+01
  0.781569E+01
  0.855235E+01
  0.930742E+01
  0.985857E+01
  0.941074E+01
  0.104391E+02
  0.110740E+02
  0.111151E+02
  0.118004E+02
  0.105679E+02
  0.107176E+02
  0.115082E+02
  0.129971E+02
  0.153293E+02
  0.177974E+02
  0.206054E+02
  0.229559E+02
  0.254272E+02
  0.278042E+02
  0.298400E+02
  0.316781E+02
  0.323977E+02
  0.350918E+02
  0.350209E+02
  0.360033E+02
  0.372370E+02
  0.384349E+02
  0.396157E+02
  0.404383E+02
  0.412221E+02
  0.422316E+02
  0.431148E+02
  0.439779E+02
  0.444789E+02
  0.450555E+02
  0.456092E+02
  0.461997E+02
  0.469448E+02
  0.474146E+02
  0.476972E+02
  0.480096E+02
  0.482987E+02
  0.485620E+02
  0.488864E+02
  0.493081E+02
  0.496312E+02
  0.496809E+02
  0.498458E+02
  0.501635E+02
  0.505677E+02
  0.506767E+02
  0.506574E+02
  0.507196E+02
  0.509105E+02
  0.512000E+02
  0.513582E+02
  0.514476E+02
  0.514964E+02
  0.516373E+02
  0.517873E+02
  0.519311E+02
  0.520370E+02
  0.520762E+02
  0.520998E+02
  0.521502E+02
  0.522050E+02
  0.522512E+02
  0.522893E+02
  0.523908E+02
  0.524906E+02
  0.525189E+02
  0.524790E+02
  0.524363E+02
  0.524707E+02
  0.525035E+02
  0.525282E+02
  0.525160E+02
  0.524969E+02
  0.524684E+02
  0.524310E+02
  0.524028E+02
  0.523785E+02
  0.523500E+02
  0.523303E+02
  0.523165E+02
  0.523005E+02
  0.522738E+02
  0.522310E+02
  0.522074E+02
  0.521781E+02
  0.521359E+02
  0.520898E+02
  0.520341E+02
  0.519644E+02
  0.518701E+02
  0.517645E+02
  0.516499E+02
  0.515446E+02
  0.514359E+02
  0.513061E+02
  0.511367E+02
  0.509468E+02
  0.507620E+02
  0.505745E+02
  0.503729E+02
  0.501358E+02
  0.498843E+02
  0.496162E+02
  0.493322E+02
  0.490368E+02
  0.487052E+02
  0.483607E+02
  0.479931E+02
  0.476100E+02
  0.471963E+02
  0.467562E+02
  0.462990E+02
  0.458183E+02
  0.453086E+02
  0.447610E+02
  0.441886E+02
  0.435927E+02
  0.429513E+02
  0.422949E+02
  0.415692E+02
  0.408187E+02
  0.400373E+02
  0.391799E+02
  0.382817E+02
  0.373352E+02
  0.363248E+02
  0.352157E+02
  0.340315E+02
  0.327577E+02
  0.313851E+02
  0.298796E+02
  0.282019E+02
  0.263804E+02
  0.242969E+02
  0.219359E+02
  0.191705E+02
  0.156773E+02
  0.109756E+02
  0.364340E+01
 -0.115691E+02
 -0.575755E-04
  0.351673E+02
  0.755661E+01
  0.125789E+02
  0.138798E+02
  0.152821E+02
  0.187840E+02
  0.201059E+02
  0.216664E+02
  0.223152E+02
  0.215986E+02
  0.205122E+02
  0.198998E+02
  0.184857E+02
  0.191638E+02
  0.203390E+02
  0.202348E+02
  0.236175E+02
  0.260077E+02
  0.292555E+02
  0.333114E+02
  0.375180E+02
  0.415798E+02
  0.472150E+02
  0.516424E+02
  0.561734E+02
  0.544334E+02
  0.650905E+02
  0.625257E+02
  0.632405E+02
  0.666331E+02
  0.702154E+02
  0.735595E+02
  0.768653E+02
  0.806212E+02
  0.840435E+02
  0.877175E+02
  0.910304E+02
  0.944463E+02
  0.973544E+02
  0.100498E+03
  0.103929E+03
  0.107221E+03
  0.110046E+03
  0.113063E+03
  0.115774E+03
  0.118488E+03
  0.121700E+03
  0.125070E+03
  0.128050E+03
  0.130046E+03
  0.132603E+03
  0.135498E+03
  0.138440E+03
  0.141236E+03
  0.143423E+03
  0.145733E+03
  0.148294E+03
  0.151003E+03
  0.153602E+03
  0.155944E+03
  0.158242E+03
  0.160582E+03
  0.162882E+03
  0.165269E+03
  0.167602E+03
  0.169503E+03
  0.171613E+03
  0.173757E+03
  0.175935E+03
  0.178062E+03
  0.180334E+03
  0.182938E+03
  0.185359E+03
  0.187576E+03
  0.189222E+03
  0.191109E+03
  0.193031E+03
  0.195072E+03
  0.197141E+03
  0.199227E+03
  0.201331E+03
  0.203355E+03
  0.205331E+03
  0.207412E+03
  0.209440E+03
  0.211423E+03
  0.213497E+03
  0.215559E+03
  0.217602E+03
  0.219404E+03
  0.221185E+03
  0.222958E+03
  0.224783E+03
  0.226622E+03
  0.228450E+03
  0.230358E+03
  0.232234E+03
  0.234051E+03
  0.235874E+03
  0.237627E+03
  0.239341E+03
  0.241288E+03
  0.243183E+03
  0.244940E+03
  0.246485E+03
  0.247816E+03
  0.249274E+03
  0.250770E+03
  0.252153E+03
  0.253496E+03
  0.254669E+03
  0.255796E+03
  0.256890E+03
  0.257834E+03
  0.258716E+03
  0.259392E+03
  0.260063E+03
  0.260604E+03
  0.261034E+03
  0.261326E+03
  0.261499E+03
  0.261608E+03
  0.261540E+03
  0.261284E+03
  0.260899E+03
  0.260380E+03
  0.259704E+03
  0.258801E+03
  0.257712E+03
  0.256397E+03
  0.254858E+03
  0.253026E+03
  0.250920E+03
  0.248493E+03
  0.245741E+03
  0.242519E+03
  0.238854E+03
  0.234667E+03
  0.229874E+03
  0.224386E+03
  0.218028E+03
  0.210853E+03
  0.202456E+03
  0.192795E+03
  0.181595E+03
  0.168239E+03
  0.152061E+03
  0.136272E+03
  0.163358E+03
  0.284855E-04
 -0.178486E+00
  0.804494E-01
  0.104782E+00
  0.155758E+00
  0.196170E+00
  0.214660E+00
  0.233612E+00
  0.247446E+00
  0.236205E+00
  0.262018E+00
  0.277952E+00
  0.278984E+00
  0.296185E+00
  0.265250E+00
  0.269008E+00
  0.288851E+00
  0.326222E+00
  0.384759E+00
  0.446707E+00
  0.517187E+00
  0.576184E+00
  0.638212E+00
  0.697874E+00
  0.748971E+00
  0.795107E+00
  0.813169E+00
  0.880788E+00
  0.879009E+00
  0.903667E+00
  0.934633E+00
  0.964699E+00
  0.994338E+00
  0.101498E+01
  0.103466E+01
  0.106000E+01
  0.108216E+01
  0.110383E+01
  0.111640E+01
  0.113087E+01
  0.114477E+01
  0.115959E+01
  0.117829E+01
  0.119009E+01
  0.119718E+01
  0.120502E+01
  0.121228E+01
  0.121889E+01
  0.122703E+01
  0.123761E+01
  0.124572E+01
  0.124697E+01
  0.125111E+01
  0.125908E+01
  0.126923E+01
  0.127196E+01
  0.127148E+01
  0.127304E+01
  0.127783E+01
  0.128510E+01
  0.128907E+01
  0.129131E+01
  0.129254E+01
  0.129607E+01
  0.129984E+01
  0.130345E+01
  0.130611E+01
  0.130709E+01
  0.130768E+01
  0.130895E+01
  0.131032E+01
  0.131148E+01
  0.131244E+01
  0.131499E+01
  0.131749E+01
  0.131820E+01
  0.131720E+01
  0.131613E+01
  0.131699E+01
  0.131782E+01
  0.131843E+01
  0.131813E+01
  0.131765E+01
  0.131693E+01
  0.131600E+01
  0.131529E+01
  0.131468E+01
  0.131396E+01
  0.131347E+01
  0.131312E+01
  0.131272E+01
  0.131205E+01
  0.131097E+01
  0.131038E+01
  0.130965E+01
  0.130859E+01
  0.130743E+01
  0.130603E+01
  0.130428E+01
  0.130192E+01
  0.129927E+01
  0.129639E+01
  0.129375E+01
  0.129102E+01
  0.128776E+01
  0.128351E+01
  0.127874E+01
  0.127411E+01
  0.126940E+01
  0.126434E+01
  0.125839E+01
  0.125207E+01
  0.124534E+01
  0.123822E+01
  0.123080E+01
  0.122248E+01
  0.121383E+01
  0.120461E+01
  0.119499E+01
  0.118461E+01
  0.117356E+01
  0.116208E+01
  0.115002E+01
  0.113723E+01
  0.112348E+01
  0.110911E+01
  0.109416E+01
  0.107806E+01
  0.106158E+01
  0.104337E+01
  0.102453E+01
  0.100492E+01
  0.983399E+00
  0.960854E+00
  0.937097E+00
  0.911738E+00
  0.883899E+00
  0.854175E+00
  0.822203E+00
  0.787753E+00
  0.749964E+00
  0.707856E+00
  0.662136E+00
  0.609841E+00
  0.550582E+00
  0.481172E+00
  0.393493E+00
  0.275482E+00
  0.914477E-01
 -0.290380E+00
 -0.144512E-05
  0.217329E+00
  0.466988E-01
  0.777358E-01
  0.857755E-01
  0.944415E-01
  0.116082E+00
  0.124252E+00
  0.133895E+00
  0.137905E+00
  0.133477E+00
  0.126762E+00
  0.122978E+00
  0.114239E+00
  0.118430E+00
  0.125692E+00
  0.125049E+00
  0.145953E+00
  0.160724E+00
  0.180795E+00
  0.205860E+00
  0.231856E+00
  0.256957E+00
  0.291782E+00
  0.319143E+00
  0.347144E+00
  0.336391E+00
  0.402250E+00
  0.386400E+00
  0.390818E+00
  0.411783E+00
  0.433921E+00
  0.454587E+00
  0.475017E+00
  0.498228E+00
  0.519377E+00
  0.542082E+00
  0.562555E+00
  0.583665E+00
  0.601637E+00
  0.621063E+00
  0.642268E+00
  0.662609E+00
  0.680068E+00
  0.698713E+00
  0.715466E+00
  0.732237E+00
  0.752089E+00
  0.772917E+00
  0.791329E+00
  0.803666E+00
  0.819469E+00
  0.837357E+00
  0.855540E+00
  0.872818E+00
  0.886331E+00
  0.900609E+00
  0.916439E+00
  0.933178E+00
  0.949240E+00
  0.963714E+00
  0.977915E+00
  0.992372E+00
  0.100659E+01
  0.102134E+01
  0.103576E+01
  0.104751E+01
  0.106055E+01
  0.107379E+01
  0.108725E+01
  0.110040E+01
  0.111444E+01
  0.113053E+01
  0.114549E+01
  0.115919E+01
  0.116937E+01
  0.118103E+01
  0.119291E+01
  0.120551E+01
  0.121831E+01
  0.123119E+01
  0.124420E+01
  0.125671E+01
  0.126892E+01
  0.128178E+01
  0.129431E+01
  0.130657E+01
  0.131938E+01
  0.133213E+01
  0.134475E+01
  0.135588E+01
  0.136689E+01
  0.137785E+01
  0.138913E+01
  0.140049E+01
  0.141179E+01
  0.142358E+01
  0.143517E+01
  0.144640E+01
  0.145767E+01
  0.146850E+01
  0.147910E+01
  0.149112E+01
  0.150284E+01
  0.151369E+01
  0.152324E+01
  0.153147E+01
  0.154048E+01
  0.154972E+01
  0.155827E+01
  0.156657E+01
  0.157382E+01
  0.158078E+01
  0.158754E+01
  0.159338E+01
  0.159883E+01
  0.160300E+01
  0.160715E+01
  0.161050E+01
  0.161315E+01
  0.161496E+01
  0.161603E+01
  0.161670E+01
  0.161628E+01
  0.161470E+01
  0.161232E+01
  0.160911E+01
  0.160493E+01
  0.159936E+01
  0.159263E+01
  0.158450E+01
  0.157498E+01
  0.156366E+01
  0.155065E+01
  0.153565E+01
  0.151864E+01
  0.149873E+01
  0.147609E+01
  0.145021E+01
  0.142059E+01
  0.138667E+01
  0.134738E+01
  0.130304E+01
  0.125115E+01
  0.119145E+01
  0.112223E+01
  0.103969E+01
  0.939718E+00
  0.842144E+00
  0.100953E+01
  0.176037E-06
 -0.829920E+00
  0.375595E+00
  0.491222E+00
  0.733250E+00
  0.927283E+00
  0.102235E+01
  0.112577E+01
  0.120944E+01
  0.117697E+01
  0.131808E+01
  0.136626E+01
  0.129356E+01
  0.126866E+01
  0.103043E+01
  0.943437E+00
  0.911862E+00
  0.926891E+00
  0.986311E+00
  0.103680E+01
  0.109142E+01
  0.111500E+01
  0.114056E+01
  0.116111E+01
  0.117245E+01
  0.118285E+01
  0.116302E+01
  0.123289E+01
  0.122525E+01
  0.126524E+01
  0.131444E+01
  0.136275E+01
  0.141080E+01
  0.144638E+01
  0.148072E+01
  0.152341E+01
  0.156193E+01
  0.160024E+01
  0.162574E+01
  0.165433E+01
  0.168226E+01
  0.171184E+01
  0.174735E+01
  0.177296E+01
  0.179165E+01
  0.181160E+01
  0.183079E+01
  0.184913E+01
  0.186991E+01
  0.189460E+01
  0.191578E+01
  0.192649E+01
  0.194175E+01
  0.196308E+01
  0.198802E+01
  0.200166E+01
  0.201026E+01
  0.202220E+01
  0.203942E+01
  0.206073E+01
  0.207718E+01
  0.209098E+01
  0.210327E+01
  0.211956E+01
  0.213636E+01
  0.215308E+01
  0.216837E+01
  0.218101E+01
  0.219310E+01
  0.220643E+01
  0.222007E+01
  0.223349E+01
  0.224670E+01
  0.226275E+01
  0.227897E+01
  0.229231E+01
  0.230280E+01
  0.231326E+01
  0.232724E+01
  0.234130E+01
  0.235513E+01
  0.236746E+01
  0.237960E+01
  0.239143E+01
  0.240292E+01
  0.241495E+01
  0.242729E+01
  0.243952E+01
  0.245226E+01
  0.246542E+01
  0.247886E+01
  0.249191E+01
  0.250434E+01
  0.251781E+01
  0.253112E+01
  0.254396E+01
  0.255676E+01
  0.256923E+01
  0.258116E+01
  0.259200E+01
  0.260239E+01
  0.261246E+01
  0.262310E+01
  0.263371E+01
  0.264340E+01
  0.265114E+01
  0.265790E+01
  0.266502E+01
  0.267208E+01
  0.267848E+01
  0.268307E+01
  0.268693E+01
  0.268995E+01
  0.269214E+01
  0.269375E+01
  0.269344E+01
  0.269240E+01
  0.268997E+01
  0.268660E+01
  0.268140E+01
  0.267458E+01
  0.266670E+01
  0.265737E+01
  0.264632E+01
  0.263301E+01
  0.261804E+01
  0.260145E+01
  0.258187E+01
  0.256110E+01
  0.253580E+01
  0.250858E+01
  0.247906E+01
  0.244433E+01
  0.240651E+01
  0.236502E+01
  0.231872E+01
  0.226516E+01
  0.220590E+01
  0.213987E+01
  0.206630E+01
  0.198279E+01
  0.188672E+01
  0.177941E+01
  0.165249E+01
  0.150442E+01
  0.132588E+01
  0.109361E+01
  0.772269E+00
  0.258601E+00
 -0.828404E+00
 -0.375316E+00
  0.410428E+01
  0.885504E+00
  0.148013E+01
  0.164003E+01
  0.181313E+01
  0.224545E+01
  0.243189E+01
  0.265802E+01
  0.279088E+01
  0.272711E+01
  0.253071E+01
  0.231591E+01
  0.198739E+01
  0.186858E+01
  0.179038E+01
  0.160333E+01
  0.168428E+01
  0.167338E+01
  0.170429E+01
  0.176443E+01
  0.182231E+01
  0.186510E+01
  0.197171E+01
  0.202910E+01
  0.209749E+01
  0.195406E+01
  0.228684E+01
  0.218754E+01
  0.222241E+01
  0.235210E+01
  0.248956E+01
  0.261961E+01
  0.274928E+01
  0.289596E+01
  0.303168E+01
  0.317775E+01
  0.331235E+01
  0.345210E+01
  0.357462E+01
  0.370679E+01
  0.385089E+01
  0.399090E+01
  0.411490E+01
  0.424698E+01
  0.436863E+01
  0.449135E+01
  0.463406E+01
  0.478396E+01
  0.492015E+01
  0.501981E+01
  0.514198E+01
  0.527833E+01
  0.541767E+01
  0.555256E+01
  0.566499E+01
  0.578317E+01
  0.591254E+01
  0.604902E+01
  0.618227E+01
  0.630716E+01
  0.643143E+01
  0.655863E+01
  0.668583E+01
  0.681777E+01
  0.694884E+01
  0.706317E+01
  0.718735E+01
  0.731416E+01
  0.744366E+01
  0.757230E+01
  0.770842E+01
  0.786024E+01
  0.800562E+01
  0.814394E+01
  0.825905E+01
  0.838592E+01
  0.851570E+01
  0.865204E+01
  0.879115E+01
  0.893246E+01
  0.907615E+01
  0.921774E+01
  0.935868E+01
  0.950573E+01
  0.965191E+01
  0.979765E+01
  0.994900E+01
  0.101014E+02
  0.102545E+02
  0.103990E+02
  0.105440E+02
  0.106903E+02
  0.108406E+02
  0.109933E+02
  0.111472E+02
  0.113068E+02
  0.114668E+02
  0.116257E+02
  0.117868E+02
  0.119464E+02
  0.121059E+02
  0.122791E+02
  0.124518E+02
  0.126198E+02
  0.127788E+02
  0.129286E+02
  0.130869E+02
  0.132493E+02
  0.134077E+02
  0.135661E+02
  0.137173E+02
  0.138680E+02
  0.140189E+02
  0.141637E+02
  0.143072E+02
  0.144412E+02
  0.145763E+02
  0.147057E+02
  0.148303E+02
  0.149485E+02
  0.150617E+02
  0.151727E+02
  0.152757E+02
  0.153697E+02
  0.154575E+02
  0.155385E+02
  0.156112E+02
  0.156713E+02
  0.157209E+02
  0.157573E+02
  0.157804E+02
  0.157856E+02
  0.157736E+02
  0.157409E+02
  0.156863E+02
  0.155994E+02
  0.154824E+02
  0.153295E+02
  0.151342E+02
  0.148901E+02
  0.145862E+02
  0.142224E+02
  0.137695E+02
  0.132224E+02
  0.125596E+02
  0.117359E+02
  0.106994E+02
  0.967236E+01
  0.116972E+02
  0.185688E+00
 -0.828915E+00
  0.378198E+00
  0.494101E+00
  0.736397E+00
  0.930609E+00
  0.102572E+01
  0.112910E+01
  0.121263E+01
  0.117994E+01
  0.132098E+01
  0.136929E+01
  0.129696E+01
  0.127263E+01
  0.103556E+01
  0.949256E+00
  0.918303E+00
  0.933813E+00
  0.993501E+00
  0.104414E+01
  0.109881E+01
  0.112249E+01
  0.114824E+01
  0.116917E+01
  0.118108E+01
  0.119204E+01
  0.117267E+01
  0.124319E+01
  0.123612E+01
  0.127640E+01
  0.132586E+01
  0.137443E+01
  0.142273E+01
  0.145853E+01
  0.149306E+01
  0.153593E+01
  0.157459E+01
  0.161302E+01
  0.163864E+01
  0.166733E+01
  0.169537E+01
  0.172507E+01
  0.176071E+01
  0.178648E+01
  0.180536E+01
  0.182553E+01
  0.184497E+01
  0.186359E+01
  0.188469E+01
  0.190975E+01
  0.193133E+01
  0.194251E+01
  0.195827E+01
  0.198014E+01
  0.200567E+01
  0.201994E+01
  0.202922E+01
  0.204189E+01
  0.205985E+01
  0.208196E+01
  0.209922E+01
  0.211385E+01
  0.212700E+01
  0.214415E+01
  0.216185E+01
  0.217948E+01
  0.219569E+01
  0.220926E+01
  0.222230E+01
  0.223658E+01
  0.225120E+01
  0.226560E+01
  0.227979E+01
  0.229686E+01
  0.231411E+01
  0.232849E+01
  0.234004E+01
  0.235158E+01
  0.236666E+01
  0.238183E+01
  0.239679E+01
  0.241026E+01
  0.242356E+01
  0.243657E+01
  0.244928E+01
  0.246253E+01
  0.247612E+01
  0.248965E+01
  0.250371E+01
  0.251822E+01
  0.253307E+01
  0.254755E+01
  0.256143E+01
  0.257641E+01
  0.259126E+01
  0.260564E+01
  0.262005E+01
  0.263415E+01
  0.264770E+01
  0.266024E+01
  0.267233E+01
  0.268410E+01
  0.269652E+01
  0.270889E+01
  0.272037E+01
  0.272996E+01
  0.273855E+01
  0.274754E+01
  0.275650E+01
  0.276476E+01
  0.277129E+01
  0.277706E+01
  0.278202E+01
  0.278617E+01
  0.278970E+01
  0.279139E+01
  0.279230E+01
  0.279189E+01
  0.279052E+01
  0.278736E+01
  0.278259E+01
  0.277677E+01
  0.276954E+01
  0.276059E+01
  0.274942E+01
  0.273661E+01
  0.272218E+01
  0.270484E+01
  0.268624E+01
  0.266320E+01
  0.263823E+01
  0.261092E+01
  0.257850E+01
  0.254298E+01
  0.250379E+01
  0.245983E+01
  0.240868E+01
  0.235188E+01
  0.228833E+01
  0.221725E+01
  0.213630E+01
  0.204287E+01
  0.193820E+01
  0.181404E+01
  0.166875E+01
  0.149325E+01
  0.126544E+01
  0.954714E+00
  0.467469E+00
 -0.581205E+00
 -0.855418E-01
  0.410071E+01
  0.873829E+00
  0.146675E+01
  0.162497E+01
  0.179691E+01
  0.222842E+01
  0.241392E+01
  0.263903E+01
  0.277080E+01
  0.270612E+01
  0.250962E+01
  0.229609E+01
  0.196888E+01
  0.185153E+01
  0.177512E+01
  0.158976E+01
  0.167236E+01
  0.166301E+01
  0.169526E+01
  0.175641E+01
  0.181497E+01
  0.185818E+01
  0.196512E+01
  0.202275E+01
  0.209125E+01
  0.194788E+01
  0.228059E+01
  0.218117E+01
  0.221603E+01
  0.234569E+01
  0.248314E+01
  0.261319E+01
  0.274289E+01
  0.288960E+01
  0.302537E+01
  0.317150E+01
  0.330616E+01
  0.344596E+01
  0.356856E+01
  0.370081E+01
  0.384497E+01
  0.398504E+01
  0.410908E+01
  0.424118E+01
  0.436282E+01
  0.448552E+01
  0.462818E+01
  0.477799E+01
  0.491408E+01
  0.501360E+01
  0.513562E+01
  0.527180E+01
  0.541093E+01
  0.554557E+01
  0.565774E+01
  0.577565E+01
  0.590473E+01
  0.604094E+01
  0.617390E+01
  0.629850E+01
  0.642248E+01
  0.654940E+01
  0.667633E+01
  0.680800E+01
  0.693881E+01
  0.705290E+01
  0.717684E+01
  0.730343E+01
  0.743270E+01
  0.756112E+01
  0.769703E+01
  0.784863E+01
  0.799378E+01
  0.813188E+01
  0.824675E+01
  0.837338E+01
  0.850292E+01
  0.863904E+01
  0.877792E+01
  0.891900E+01
  0.906247E+01
  0.920384E+01
  0.934456E+01
  0.949139E+01
  0.963735E+01
  0.978287E+01
  0.993400E+01
  0.100861E+02
  0.102390E+02
  0.103832E+02
  0.105280E+02
  0.106740E+02
  0.108241E+02
  0.109765E+02
  0.111302E+02
  0.112895E+02
  0.114492E+02
  0.116079E+02
  0.117688E+02
  0.119281E+02
  0.120874E+02
  0.122604E+02
  0.124328E+02
  0.126006E+02
  0.127593E+02
  0.129088E+02
  0.130669E+02
  0.132291E+02
  0.133873E+02
  0.135454E+02
  0.136964E+02
  0.138469E+02
  0.139976E+02
  0.141421E+02
  0.142854E+02
  0.144192E+02
  0.145542E+02
  0.146833E+02
  0.148078E+02
  0.149258E+02
  0.150388E+02
  0.151496E+02
  0.152524E+02
  0.153463E+02
  0.154339E+02
  0.155147E+02
  0.155874E+02
  0.156473E+02
  0.156968E+02
  0.157331E+02
  0.157562E+02
  0.157613E+02
  0.157493E+02
  0.157166E+02
  0.156620E+02
  0.155750E+02
  0.154581E+02
  0.153052E+02
  0.151101E+02
  0.148660E+02
  0.145623E+02
  0.141988E+02
  0.137461E+02
  0.131993E+02
  0.125370E+02
  0.117139E+02
  0.106788E+02
  0.965524E+01
  0.116842E+02
  0.138160E+00
 -0.100431E-02
 -0.260253E-02
 -0.287834E-02
 -0.314703E-02
 -0.332589E-02
 -0.336423E-02
 -0.333065E-02
 -0.318536E-02
 -0.297186E-02
 -0.290013E-02
 -0.302858E-02
 -0.340524E-02
 -0.396220E-02
 -0.513380E-02
 -0.581900E-02
 -0.644095E-02
 -0.692170E-02
 -0.718974E-02
 -0.734187E-02
 -0.738777E-02
 -0.748382E-02
 -0.768310E-02
 -0.805462E-02
 -0.862325E-02
 -0.919388E-02
 -0.964747E-02
 -0.103005E-01
 -0.108726E-01
 -0.111593E-01
 -0.114190E-01
 -0.116785E-01
 -0.119272E-01
 -0.121549E-01
 -0.123455E-01
 -0.125139E-01
 -0.126617E-01
 -0.127860E-01
 -0.128944E-01
 -0.129979E-01
 -0.131116E-01
 -0.132276E-01
 -0.133567E-01
 -0.135176E-01
 -0.137107E-01
 -0.139266E-01
 -0.141766E-01
 -0.144604E-01
 -0.147767E-01
 -0.151456E-01
 -0.155486E-01
 -0.160195E-01
 -0.165213E-01
 -0.170601E-01
 -0.176449E-01
 -0.182781E-01
 -0.189685E-01
 -0.196875E-01
 -0.204316E-01
 -0.212342E-01
 -0.220401E-01
 -0.228667E-01
 -0.237328E-01
 -0.245976E-01
 -0.254870E-01
 -0.263984E-01
 -0.273116E-01
 -0.282492E-01
 -0.292000E-01
 -0.301492E-01
 -0.311213E-01
 -0.321050E-01
 -0.330949E-01
 -0.341074E-01
 -0.351342E-01
 -0.361763E-01
 -0.372412E-01
 -0.383211E-01
 -0.394165E-01
 -0.405287E-01
 -0.416538E-01
 -0.428007E-01
 -0.439627E-01
 -0.451391E-01
 -0.463522E-01
 -0.475825E-01
 -0.488333E-01
 -0.501347E-01
 -0.514565E-01
 -0.528029E-01
 -0.542079E-01
 -0.556354E-01
 -0.570866E-01
 -0.585996E-01
 -0.601336E-01
 -0.616820E-01
 -0.632934E-01
 -0.649174E-01
 -0.665444E-01
 -0.682404E-01
 -0.699381E-01
 -0.716404E-01
 -0.734149E-01
 -0.751806E-01
 -0.769692E-01
 -0.788187E-01
 -0.806427E-01
 -0.825180E-01
 -0.844135E-01
 -0.862782E-01
 -0.882261E-01
 -0.901321E-01
 -0.920650E-01
 -0.940270E-01
 -0.959450E-01
 -0.979560E-01
 -0.999026E-01
 -0.101922E+00
 -0.103922E+00
 -0.105956E+00
 -0.108009E+00
 -0.110070E+00
 -0.112169E+00
 -0.114273E+00
 -0.116411E+00
 -0.118573E+00
 -0.120737E+00
 -0.122967E+00
 -0.125138E+00
 -0.127406E+00
 -0.129644E+00
 -0.131869E+00
 -0.134168E+00
 -0.136468E+00
 -0.138765E+00
 -0.141108E+00
 -0.143523E+00
 -0.145978E+00
 -0.148455E+00
 -0.150952E+00
 -0.153512E+00
 -0.156144E+00
 -0.158792E+00
 -0.161548E+00
 -0.164337E+00
 -0.167364E+00
 -0.171833E+00
 -0.182444E+00
 -0.208868E+00
 -0.247199E+00
 -0.289774E+00
  0.356866E-02
  0.116748E-01
  0.133816E-01
  0.150622E-01
  0.162221E-01
  0.170250E-01
  0.179749E-01
  0.189881E-01
  0.200751E-01
  0.209860E-01
  0.210858E-01
  0.198174E-01
  0.185108E-01
  0.170437E-01
  0.152556E-01
  0.135677E-01
  0.119184E-01
  0.103719E-01
  0.902949E-02
  0.802027E-02
  0.733535E-02
  0.691851E-02
  0.659283E-02
  0.635199E-02
  0.623791E-02
  0.618152E-02
  0.625184E-02
  0.636265E-02
  0.638365E-02