 Title= "ADflow Lift Distribution Data"
Variables = "eta" "CoordinateX" "CoordinateY" "CoordinateZ" "Lift" "Drag" "Normalized Lift" "Normalized Drag" "CL" "CD" "CLp" "CDp" "CLv" "CDv" "Ellptical" "thickness" "twist" "chord" 
Zone T= "LiftDist_01 allWalls: : z normal"
 I=          150
 DATAPACKING=BLOCK
  0.000000E+00
  0.671141E-02
  0.134228E-01
  0.201342E-01
  0.268456E-01
  0.335570E-01
  0.402685E-01
  0.469799E-01
  0.536913E-01
  0.604027E-01
  0.671141E-01
  0.738255E-01
  0.805369E-01
  0.872483E-01
  0.939597E-01
  0.100671E+00
  0.107383E+00
  0.114094E+00
  0.120805E+00
  0.127517E+00
  0.134228E+00
  0.140940E+00
  0.147651E+00
  0.154362E+00
  0.161074E+00
  0.167785E+00
  0.174497E+00
  0.181208E+00
  0.187919E+00
  0.194631E+00
  0.201342E+00
  0.208054E+00
  0.214765E+00
  0.221477E+00
  0.228188E+00
  0.234899E+00
  0.241611E+00
  0.248322E+00
  0.255034E+00
  0.261745E+00
  0.268456E+00
  0.275168E+00
  0.281879E+00
  0.288591E+00
  0.295302E+00
  0.302013E+00
  0.308725E+00
  0.315436E+00
  0.322148E+00
  0.328859E+00
  0.335570E+00
  0.342282E+00
  0.348993E+00
  0.355705E+00
  0.362416E+00
  0.369128E+00
  0.375839E+00
  0.382550E+00
  0.389262E+00
  0.395973E+00
  0.402685E+00
  0.409396E+00
  0.416107E+00
  0.422819E+00
  0.429530E+00
  0.436242E+00
  0.442953E+00
  0.449664E+00
  0.456376E+00
  0.463087E+00
  0.469799E+00
  0.476510E+00
  0.483221E+00
  0.489933E+00
  0.496644E+00
  0.503356E+00
  0.510067E+00
  0.516779E+00
  0.523490E+00
  0.530201E+00
  0.536913E+00
  0.543624E+00
  0.550336E+00
  0.557047E+00
  0.563758E+00
  0.570470E+00
  0.577181E+00
  0.583893E+00
  0.590604E+00
  0.597315E+00
  0.604027E+00
  0.610738E+00
  0.617450E+00
  0.624161E+00
  0.630872E+00
  0.637584E+00
  0.644295E+00
  0.651007E+00
  0.657718E+00
  0.664430E+00
  0.671141E+00
  0.677852E+00
  0.684564E+00
  0.691275E+00
  0.697987E+00
  0.704698E+00
  0.711409E+00
  0.718121E+00
  0.724832E+00
  0.731544E+00
  0.738255E+00
  0.744966E+00
  0.751678E+00
  0.758389E+00
  0.765101E+00
  0.771812E+00
  0.778523E+00
  0.785235E+00
  0.791946E+00
  0.798658E+00
  0.805369E+00
  0.812081E+00
  0.818792E+00
  0.825503E+00
  0.832215E+00
  0.838926E+00
  0.845638E+00
  0.852349E+00
  0.859060E+00
  0.865772E+00
  0.872483E+00
  0.879195E+00
  0.885906E+00
  0.892617E+00
  0.899329E+00
  0.906040E+00
  0.912752E+00
  0.919463E+00
  0.926174E+00
  0.932886E+00
  0.939597E+00
  0.946309E+00
  0.953020E+00
  0.959732E+00
  0.966443E+00
  0.973154E+00
  0.979866E+00
  0.986577E+00
  0.993289E+00
  0.100000E+01
  0.000000E+00
  0.000000E+00
  0.000000E+00
  0.000000E+00
  0.000000E+00
  0.000000E+00
  0.000000E+00
  0.000000E+00
  0.000000E+00
  0.000000E+00
  0.000000E+00
  0.000000E+00
  0.000000E+00
  0.000000E+00
  0.000000E+00
  0.000000E+00
  0.000000E+00
  0.000000E+00
  0.000000E+00
  0.000000E+00
  0.000000E+00
  0.000000E+00
  0.000000E+00
  0.000000E+00
  0.000000E+00
  0.000000E+00
  0.000000E+00
  0.000000E+00
  0.000000E+00
  0.000000E+00
  0.000000E+00
  0.000000E+00
  0.000000E+00
  0.000000E+00
  0.000000E+00
  0.000000E+00
  0.000000E+00
  0.000000E+00
  0.000000E+00
  0.000000E+00
  0.000000E+00
  0.000000E+00
  0.000000E+00
  0.000000E+00
  0.000000E+00
  0.000000E+00
  0.000000E+00
  0.000000E+00
  0.000000E+00
  0.000000E+00
  0.000000E+00
  0.000000E+00
  0.000000E+00
  0.000000E+00
  0.000000E+00
  0.000000E+00
  0.000000E+00
  0.000000E+00
  0.000000E+00
  0.000000E+00
  0.000000E+00
  0.000000E+00
  0.000000E+00
  0.000000E+00
  0.000000E+00
  0.000000E+00
  0.000000E+00
  0.000000E+00
  0.000000E+00
  0.000000E+00
  0.000000E+00
  0.000000E+00
  0.000000E+00
  0.000000E+00
  0.000000E+00
  0.000000E+00
  0.000000E+00
  0.000000E+00
  0.000000E+00
  0.000000E+00
  0.000000E+00
  0.000000E+00
  0.000000E+00
  0.000000E+00
  0.000000E+00
  0.000000E+00
  0.000000E+00
  0.000000E+00
  0.000000E+00
  0.000000E+00
  0.000000E+00
  0.000000E+00
  0.000000E+00
  0.000000E+00
  0.000000E+00
  0.000000E+00
  0.000000E+00
  0.000000E+00
  0.000000E+00
  0.000000E+00
  0.000000E+00
  0.000000E+00
  0.000000E+00
  0.000000E+00
  0.000000E+00
  0.000000E+00
  0.000000E+00
  0.000000E+00
  0.000000E+00
  0.000000E+00
  0.000000E+00
  0.000000E+00
  0.000000E+00
  0.000000E+00
  0.000000E+00
  0.000000E+00
  0.000000E+00
  0.000000E+00
  0.000000E+00
  0.000000E+00
  0.000000E+00
  0.000000E+00
  0.000000E+00
  0.000000E+00
  0.000000E+00
  0.000000E+00
  0.000000E+00
  0.000000E+00
  0.000000E+00
  0.000000E+00
  0.000000E+00
  0.000000E+00
  0.000000E+00
  0.000000E+00
  0.000000E+00
  0.000000E+00
  0.000000E+00
  0.000000E+00
  0.000000E+00
  0.000000E+00
  0.000000E+00
  0.000000E+00
  0.000000E+00
  0.000000E+00
  0.000000E+00
  0.000000E+00
  0.000000E+00
  0.000000E+00
  0.000000E+00
  0.000000E+00
  0.000000E+00
  0.000000E+00
  0.000000E+00
  0.000000E+00
  0.000000E+00
  0.000000E+00
  0.000000E+00
  0.000000E+00
  0.000000E+00
  0.000000E+00
  0.000000E+00
  0.000000E+00
  0.000000E+00
  0.000000E+00
  0.000000E+00
  0.000000E+00
  0.000000E+00
  0.000000E+00
  0.000000E+00
  0.000000E+00
  0.000000E+00
  0.000000E+00
  0.000000E+00
  0.000000E+00
  0.000000E+00
  0.000000E+00
  0.000000E+00
  0.000000E+00
  0.000000E+00
  0.000000E+00
  0.000000E+00
  0.000000E+00
  0.000000E+00
  0.000000E+00
  0.000000E+00
  0.000000E+00
  0.000000E+00
  0.000000E+00
  0.000000E+00
  0.000000E+00
  0.000000E+00
  0.000000E+00
  0.000000E+00
  0.000000E+00
  0.000000E+00
  0.000000E+00
  0.000000E+00
  0.000000E+00
  0.000000E+00
  0.000000E+00
  0.000000E+00
  0.000000E+00
  0.000000E+00
  0.000000E+00
  0.000000E+00
  0.000000E+00
  0.000000E+00
  0.000000E+00
  0.000000E+00
  0.000000E+00
  0.000000E+00
  0.000000E+00
  0.000000E+00
  0.000000E+00
  0.000000E+00
  0.000000E+00
  0.000000E+00
  0.000000E+00
  0.000000E+00
  0.000000E+00
  0.000000E+00
  0.000000E+00
  0.000000E+00
  0.000000E+00
  0.000000E+00
  0.000000E+00
  0.000000E+00
  0.000000E+00
  0.000000E+00
  0.000000E+00
  0.000000E+00
  0.000000E+00
  0.000000E+00
  0.000000E+00
  0.000000E+00
  0.000000E+00
  0.000000E+00
  0.000000E+00
  0.000000E+00
  0.000000E+00
  0.000000E+00
  0.000000E+00
  0.000000E+00
  0.000000E+00
  0.000000E+00
  0.000000E+00
  0.000000E+00
  0.000000E+00
  0.000000E+00
  0.000000E+00
  0.000000E+00
  0.000000E+00
  0.000000E+00
  0.000000E+00
  0.000000E+00
  0.000000E+00
  0.000000E+00
  0.000000E+00
  0.000000E+00
  0.000000E+00
  0.000000E+00
  0.000000E+00
  0.000000E+00
  0.000000E+00
  0.000000E+00
  0.000000E+00
  0.000000E+00
  0.000000E+00
  0.000000E+00
  0.000000E+00
  0.000000E+00
  0.000000E+00
  0.000000E+00
  0.000000E+00
  0.000000E+00
  0.000000E+00
  0.000000E+00
  0.000000E+00
  0.000000E+00
  0.000000E+00
  0.000000E+00
  0.000000E+00
  0.000000E+00
  0.000000E+00
  0.000000E+00
  0.000000E+00
  0.000000E+00
  0.000000E+00
  0.000000E+00
  0.000000E+00
  0.000000E+00
  0.000000E+00
  0.000000E+00
  0.000000E+00
  0.000000E+00
  0.000000E+00
  0.000000E+00
  0.000000E+00
  0.000000E+00
  0.000000E+00
  0.508000E+00
  0.538474E+00
  0.568949E+00
  0.599423E+00
  0.629898E+00
  0.660372E+00
  0.690846E+00
  0.721321E+00
  0.751795E+00
  0.782269E+00
  0.812744E+00
  0.843218E+00
  0.873693E+00
  0.904167E+00
  0.934641E+00
  0.965116E+00
  0.995590E+00
  0.102606E+01
  0.105654E+01
  0.108701E+01
  0.111749E+01
  0.114796E+01
  0.117844E+01
  0.120891E+01
  0.123939E+01
  0.126986E+01
  0.130033E+01
  0.133081E+01
  0.136128E+01
  0.139176E+01
  0.142223E+01
  0.145271E+01
  0.148318E+01
  0.151365E+01
  0.154413E+01
  0.157460E+01
  0.160508E+01
  0.163555E+01
  0.166603E+01
  0.169650E+01
  0.172698E+01
  0.175745E+01
  0.178792E+01
  0.181840E+01
  0.184887E+01
  0.187935E+01
  0.190982E+01
  0.194030E+01
  0.197077E+01
  0.200124E+01
  0.203172E+01
  0.206219E+01
  0.209267E+01
  0.212314E+01
  0.215362E+01
  0.218409E+01
  0.221457E+01
  0.224504E+01
  0.227551E+01
  0.230599E+01
  0.233646E+01
  0.236694E+01
  0.239741E+01
  0.242789E+01
  0.245836E+01
  0.248883E+01
  0.251931E+01
  0.254978E+01
  0.258026E+01
  0.261073E+01
  0.264121E+01
  0.267168E+01
  0.270216E+01
  0.273263E+01
  0.276310E+01
  0.279358E+01
  0.282405E+01
  0.285453E+01
  0.288500E+01
  0.291548E+01
  0.294595E+01
  0.297642E+01
  0.300690E+01
  0.303737E+01
  0.306785E+01
  0.309832E+01
  0.312880E+01
  0.315927E+01
  0.318975E+01
  0.322022E+01
  0.325069E+01
  0.328117E+01
  0.331164E+01
  0.334212E+01
  0.337259E+01
  0.340307E+01
  0.343354E+01
  0.346401E+01
  0.349449E+01
  0.352496E+01
  0.355544E+01
  0.358591E+01
  0.361639E+01
  0.364686E+01
  0.367734E+01
  0.370781E+01
  0.373828E+01
  0.376876E+01
  0.379923E+01
  0.382971E+01
  0.386018E+01
  0.389066E+01
  0.392113E+01
  0.395160E+01
  0.398208E+01
  0.401255E+01
  0.404303E+01
  0.407350E+01
  0.410398E+01
  0.413445E+01
  0.416493E+01
  0.419540E+01
  0.422587E+01
  0.425635E+01
  0.428682E+01
  0.431730E+01
  0.434777E+01
  0.437825E+01
  0.440872E+01
  0.443919E+01
  0.446967E+01
  0.450014E+01
  0.453062E+01
  0.456109E+01
  0.459157E+01
  0.462204E+01
  0.465252E+01
  0.468299E+01
  0.471346E+01
  0.474394E+01
  0.477441E+01
  0.480489E+01
  0.483536E+01
  0.486584E+01
  0.489631E+01
  0.492678E+01
  0.495726E+01
  0.498773E+01
  0.501821E+01
  0.504868E+01
 -0.954118E+01
  0.427628E+00
 -0.382065E+00
 -0.995409E-01
  0.468044E+00
 -0.650031E+00
 -0.513299E+00
 -0.686266E+00
 -0.154933E+01
 -0.576069E+00
  0.190738E+00
  0.242042E+00
  0.144792E+01
  0.746046E+00
  0.963402E+00
  0.161501E+01
  0.125907E+01
  0.140758E+01
  0.132080E+01
  0.136109E+01
  0.136700E+01
  0.136381E+01
  0.142877E+01
  0.142407E+01
  0.147355E+01
  0.136138E+01
  0.178532E+01
  0.163023E+01
  0.196001E+01
  0.222620E+01
  0.244485E+01
  0.269100E+01
  0.276372E+01
  0.293600E+01
  0.324910E+01
  0.354632E+01
  0.384290E+01
  0.398007E+01
  0.412795E+01
  0.426533E+01
  0.447641E+01
  0.482796E+01
  0.505009E+01
  0.515595E+01
  0.529399E+01
  0.542704E+01
  0.557187E+01
  0.582102E+01
  0.616544E+01
  0.634428E+01
  0.629765E+01
  0.638731E+01
  0.662652E+01
  0.692612E+01
  0.705526E+01
  0.706583E+01
  0.713530E+01
  0.730308E+01
  0.755257E+01
  0.769724E+01
  0.778891E+01
  0.785869E+01
  0.797605E+01
  0.810176E+01
  0.822722E+01
  0.832186E+01
  0.837594E+01
  0.842390E+01
  0.850174E+01
  0.858447E+01
  0.866798E+01
  0.875619E+01
  0.887588E+01
  0.898633E+01
  0.902822E+01
  0.902824E+01
  0.902565E+01
  0.907771E+01
  0.913229E+01
  0.918490E+01
  0.921932E+01
  0.924687E+01
  0.926786E+01
  0.928608E+01
  0.930641E+01
  0.932661E+01
  0.933956E+01
  0.935546E+01
  0.937373E+01
  0.937836E+01
  0.937470E+01
  0.936066E+01
  0.935274E+01
  0.934305E+01
  0.932979E+01
  0.931506E+01
  0.929675E+01
  0.927297E+01
  0.923779E+01
  0.919966E+01
  0.916073E+01
  0.913789E+01
  0.911654E+01
  0.908153E+01
  0.901772E+01
  0.894789E+01
  0.888889E+01
  0.883640E+01
  0.878324E+01
  0.871714E+01
  0.864859E+01
  0.857677E+01
  0.850302E+01
  0.842842E+01
  0.834139E+01
  0.825146E+01
  0.815718E+01
  0.806164E+01
  0.795560E+01
  0.784196E+01
  0.772786E+01
  0.761110E+01
  0.748463E+01
  0.734376E+01
  0.719711E+01
  0.704751E+01
  0.688587E+01
  0.672216E+01
  0.653705E+01
  0.634776E+01
  0.615273E+01
  0.593598E+01
  0.571013E+01
  0.547260E+01
  0.521695E+01
  0.492526E+01
  0.461771E+01
  0.428533E+01
  0.392701E+01
  0.353326E+01
  0.307594E+01
  0.257945E+01
  0.200821E+01
  0.135867E+01
  0.597051E+00
 -0.357037E+00
 -0.171926E+01
 -0.408315E+01
 -0.805064E+01
 -0.578842E-04
  0.159217E+02
  0.398881E+01
  0.646306E+01
  0.743204E+01
  0.813193E+01
  0.101508E+02
  0.105928E+02
  0.111819E+02
  0.113405E+02
  0.106950E+02
  0.980557E+01
  0.906539E+01
  0.841212E+01
  0.769748E+01
  0.726567E+01
  0.652020E+01
  0.632257E+01
  0.599909E+01
  0.585178E+01
  0.588461E+01
  0.616830E+01
  0.582257E+01
  0.622687E+01
  0.628978E+01
  0.658271E+01
  0.615425E+01
  0.825814E+01
  0.765580E+01
  0.867617E+01
  0.977124E+01
  0.106843E+02
  0.117382E+02
  0.124378E+02
  0.134089E+02
  0.147267E+02
  0.161453E+02
  0.174825E+02
  0.184567E+02
  0.194592E+02
  0.204888E+02
  0.217276E+02
  0.234186E+02
  0.247516E+02
  0.258209E+02
  0.269406E+02
  0.280546E+02
  0.293564E+02
  0.311602E+02
  0.332976E+02
  0.345443E+02
  0.350775E+02
  0.362617E+02
  0.381152E+02
  0.402176E+02
  0.415971E+02
  0.425756E+02
  0.438394E+02
  0.455242E+02
  0.475923E+02
  0.491687E+02
  0.505317E+02
  0.518205E+02
  0.532948E+02
  0.548522E+02
  0.564223E+02
  0.577917E+02
  0.589896E+02
  0.601829E+02
  0.615761E+02
  0.630483E+02
  0.645665E+02
  0.661853E+02
  0.680150E+02
  0.697442E+02
  0.709126E+02
  0.718186E+02
  0.727228E+02
  0.740715E+02
  0.754836E+02
  0.769088E+02
  0.782706E+02
  0.796020E+02
  0.809071E+02
  0.822066E+02
  0.835226E+02
  0.848480E+02
  0.861500E+02
  0.874554E+02
  0.887602E+02
  0.898467E+02
  0.908335E+02
  0.917210E+02
  0.927488E+02
  0.937597E+02
  0.947210E+02
  0.957453E+02
  0.967421E+02
  0.976925E+02
  0.985913E+02
  0.994388E+02
  0.100265E+03
  0.101279E+03
  0.102333E+03
  0.103276E+03
  0.103978E+03
  0.104498E+03
  0.105184E+03
  0.105962E+03
  0.106709E+03
  0.107418E+03
  0.108047E+03
  0.108673E+03
  0.109311E+03
  0.109900E+03
  0.110445E+03
  0.110895E+03
  0.111372E+03
  0.111805E+03
  0.112191E+03
  0.112510E+03
  0.112791E+03
  0.113080E+03
  0.113285E+03
  0.113379E+03
  0.113432E+03
  0.113449E+03
  0.113402E+03
  0.113244E+03
  0.113018E+03
  0.112688E+03
  0.112257E+03
  0.111700E+03
  0.111021E+03
  0.110200E+03
  0.109233E+03
  0.108023E+03
  0.106625E+03
  0.104975E+03
  0.103024E+03
  0.100764E+03
  0.980410E+02
  0.949276E+02
  0.912096E+02
  0.868600E+02
  0.817634E+02
  0.756810E+02
  0.682103E+02
  0.584216E+02
  0.590470E+02
  0.198364E-04
 -0.172755E+01
  0.774271E-01
 -0.691774E-01
 -0.180231E-01
  0.847449E-01
 -0.117696E+00
 -0.929390E-01
 -0.124257E+00
 -0.280524E+00
 -0.104304E+00
  0.345355E-01
  0.438246E-01
  0.262163E+00
  0.135081E+00
  0.174435E+00
  0.292417E+00
  0.227971E+00
  0.254860E+00
  0.239146E+00
  0.246442E+00
  0.247511E+00
  0.246934E+00
  0.258695E+00
  0.257844E+00
  0.266804E+00
  0.246494E+00
  0.323254E+00
  0.295173E+00
  0.354883E+00
  0.403080E+00
  0.442669E+00
  0.487237E+00
  0.500405E+00
  0.531597E+00
  0.588289E+00
  0.642103E+00
  0.695803E+00
  0.720639E+00
  0.747415E+00
  0.772289E+00
  0.810508E+00
  0.874161E+00
  0.914379E+00
  0.933547E+00
  0.958540E+00
  0.982630E+00
  0.100885E+01
  0.105397E+01
  0.111633E+01
  0.114871E+01
  0.114027E+01
  0.115650E+01
  0.119981E+01
  0.125406E+01
  0.127744E+01
  0.127935E+01
  0.129193E+01
  0.132231E+01
  0.136748E+01
  0.139368E+01
  0.141027E+01
  0.142291E+01
  0.144416E+01
  0.146692E+01
  0.148964E+01
  0.150677E+01
  0.151656E+01
  0.152525E+01
  0.153934E+01
  0.155432E+01
  0.156944E+01
  0.158541E+01
  0.160708E+01
  0.162708E+01
  0.163467E+01
  0.163467E+01
  0.163420E+01
  0.164363E+01
  0.165351E+01
  0.166304E+01
  0.166927E+01
  0.167426E+01
  0.167806E+01
  0.168136E+01
  0.168504E+01
  0.168869E+01
  0.169104E+01
  0.169392E+01
  0.169723E+01
  0.169806E+01
  0.169740E+01
  0.169486E+01
  0.169343E+01
  0.169167E+01
  0.168927E+01
  0.168660E+01
  0.168329E+01
  0.167898E+01
  0.167261E+01
  0.166571E+01
  0.165866E+01
  0.165453E+01
  0.165066E+01
  0.164432E+01
  0.163277E+01
  0.162012E+01
  0.160944E+01
  0.159994E+01
  0.159031E+01
  0.157834E+01
  0.156593E+01
  0.155293E+01
  0.153957E+01
  0.152607E+01
  0.151031E+01
  0.149403E+01
  0.147696E+01
  0.145966E+01
  0.144046E+01
  0.141988E+01
  0.139922E+01
  0.137808E+01
  0.135518E+01
  0.132967E+01
  0.130312E+01
  0.127604E+01
  0.124677E+01
  0.121713E+01
  0.118361E+01
  0.114934E+01
  0.111402E+01
  0.107478E+01
  0.103389E+01
  0.990880E+00
  0.944591E+00
  0.891776E+00
  0.836091E+00
  0.775911E+00
  0.711032E+00
  0.639738E+00
  0.556936E+00
  0.467040E+00
  0.363610E+00
  0.246003E+00
  0.108103E+00
 -0.646458E-01
 -0.311292E+00
 -0.739304E+00
 -0.145767E+01
 -0.104806E-04
  0.257060E+00
  0.644002E-01
  0.104347E+00
  0.119992E+00
  0.131292E+00
  0.163886E+00
  0.171023E+00
  0.180534E+00
  0.183095E+00
  0.172673E+00
  0.158313E+00
  0.146363E+00
  0.135815E+00
  0.124277E+00
  0.117306E+00
  0.105270E+00
  0.102079E+00
  0.968566E-01
  0.944783E-01
  0.950082E-01
  0.995885E-01
  0.940067E-01
  0.100534E+00
  0.101550E+00
  0.106279E+00
  0.993617E-01
  0.133329E+00
  0.123604E+00
  0.140079E+00
  0.157759E+00
  0.172500E+00
  0.189515E+00
  0.200810E+00
  0.216490E+00
  0.237765E+00
  0.260670E+00
  0.282258E+00
  0.297987E+00
  0.314173E+00
  0.330796E+00
  0.350796E+00
  0.378098E+00
  0.399620E+00
  0.416884E+00
  0.434961E+00
  0.452948E+00
  0.473965E+00
  0.503088E+00
  0.537597E+00
  0.557724E+00
  0.566334E+00
  0.585454E+00
  0.615378E+00
  0.649322E+00
  0.671594E+00
  0.687392E+00
  0.707797E+00
  0.734999E+00
  0.768387E+00
  0.793839E+00
  0.815845E+00
  0.836653E+00
  0.860457E+00
  0.885600E+00
  0.910951E+00
  0.933059E+00
  0.952399E+00
  0.971666E+00
  0.994159E+00
  0.101793E+01
  0.104244E+01
  0.106858E+01
  0.109812E+01
  0.112604E+01
  0.114490E+01
  0.115953E+01
  0.117413E+01
  0.119590E+01
  0.121870E+01
  0.124171E+01
  0.126370E+01
  0.128519E+01
  0.130626E+01
  0.132724E+01
  0.134849E+01
  0.136989E+01
  0.139091E+01
  0.141199E+01
  0.143305E+01
  0.145059E+01
  0.146653E+01
  0.148086E+01
  0.149745E+01
  0.151377E+01
  0.152929E+01
  0.154583E+01
  0.156192E+01
  0.157727E+01
  0.159178E+01
  0.160546E+01
  0.161880E+01
  0.163517E+01
  0.165219E+01
  0.166742E+01
  0.167875E+01
  0.168714E+01
  0.169822E+01
  0.171078E+01
  0.172284E+01
  0.173428E+01
  0.174444E+01
  0.175454E+01
  0.176485E+01
  0.177436E+01
  0.178317E+01
  0.179042E+01
  0.179812E+01
  0.180511E+01
  0.181134E+01
  0.181650E+01
  0.182104E+01
  0.182570E+01
  0.182902E+01
  0.183053E+01
  0.183138E+01
  0.183165E+01
  0.183089E+01
  0.182836E+01
  0.182470E+01
  0.181938E+01
  0.181242E+01
  0.180343E+01
  0.179246E+01
  0.177920E+01
  0.176359E+01
  0.174406E+01
  0.172149E+01
  0.169484E+01
  0.166335E+01
  0.162685E+01
  0.158289E+01
  0.153263E+01
  0.147260E+01
  0.140237E+01
  0.132009E+01
  0.122189E+01
  0.110127E+01
  0.943230E+00
  0.953326E+00
  0.320263E-06
 -0.285063E+01
  0.128283E+00
 -0.115090E+00
 -0.301099E-01
  0.142158E+00
 -0.198925E+00
 -0.158939E+00
 -0.215528E+00
 -0.496049E+00
 -0.186204E+00
  0.602433E-01
  0.721113E-01
  0.398505E+00
  0.186223E+00
  0.217101E+00
  0.327595E+00
  0.229865E+00
  0.231850E+00
  0.196976E+00
  0.184560E+00
  0.169976E+00
  0.156608E+00
  0.152744E+00
  0.143241E+00
  0.140856E+00
  0.125110E+00
  0.160574E+00
  0.146011E+00
  0.176330E+00
  0.201173E+00
  0.221912E+00
  0.245330E+00
  0.253060E+00
  0.269984E+00
  0.300043E+00
  0.328891E+00
  0.357972E+00
  0.372417E+00
  0.388015E+00
  0.402749E+00
  0.424614E+00
  0.460041E+00
  0.483420E+00
  0.495802E+00
  0.511396E+00
  0.526631E+00
  0.543140E+00
  0.569996E+00
  0.606463E+00
  0.626920E+00
  0.625166E+00
  0.636975E+00
  0.663860E+00
  0.697074E+00
  0.713403E+00
  0.717813E+00
  0.728285E+00
  0.748938E+00
  0.778189E+00
  0.796966E+00
  0.810404E+00
  0.821689E+00
  0.838126E+00
  0.855599E+00
  0.873224E+00
  0.887732E+00
  0.898031E+00
  0.907769E+00
  0.920837E+00
  0.934563E+00
  0.948520E+00
  0.963133E+00
  0.981370E+00
  0.998802E+00
  0.100879E+01
  0.101418E+01
  0.101932E+01
  0.103072E+01
  0.104253E+01
  0.105424E+01
  0.106397E+01
  0.107301E+01
  0.108138E+01
  0.108949E+01
  0.109793E+01
  0.110645E+01
  0.111417E+01
  0.112232E+01
  0.113085E+01
  0.113792E+01
  0.114405E+01
  0.114898E+01
  0.115470E+01
  0.116026E+01
  0.116543E+01
  0.117048E+01
  0.117513E+01
  0.117915E+01
  0.118175E+01
  0.118400E+01
  0.118618E+01
  0.119047E+01
  0.119501E+01
  0.119782E+01
  0.119684E+01
  0.119504E+01
  0.119467E+01
  0.119518E+01
  0.119560E+01
  0.119426E+01
  0.119255E+01
  0.119038E+01
  0.118790E+01
  0.118528E+01
  0.118089E+01
  0.117603E+01
  0.117044E+01
  0.116458E+01
  0.115709E+01
  0.114837E+01
  0.113947E+01
  0.113006E+01
  0.111911E+01
  0.110589E+01
  0.109160E+01
  0.107665E+01
  0.105964E+01
  0.104205E+01
  0.102086E+01
  0.998689E+00
  0.975278E+00
  0.948045E+00
  0.918931E+00
  0.887464E+00
  0.852514E+00
  0.811020E+00
  0.766253E+00
  0.716637E+00
  0.661868E+00
  0.600229E+00
  0.526802E+00
  0.445411E+00
  0.349653E+00
  0.238542E+00
  0.105712E+00
 -0.637594E-01
 -0.309686E+00
 -0.741925E+00
 -0.147575E+01
 -0.965959E+00
  0.475695E+01
  0.119659E+01
  0.194687E+01
  0.224810E+01
  0.246990E+01
  0.310638E+01
  0.327999E+01
  0.351177E+01
  0.363089E+01
  0.345698E+01
  0.309701E+01
  0.270084E+01
  0.231523E+01
  0.192140E+01
  0.163731E+01
  0.132258E+01
  0.115429E+01
  0.988137E+00
  0.872701E+00
  0.797938E+00
  0.766984E+00
  0.668612E+00
  0.665692E+00
  0.632661E+00
  0.629237E+00
  0.565573E+00
  0.742746E+00
  0.685689E+00
  0.780543E+00
  0.882987E+00
  0.969785E+00
  0.107013E+01
  0.113886E+01
  0.123304E+01
  0.135995E+01
  0.149734E+01
  0.162852E+01
  0.172700E+01
  0.182911E+01
  0.193463E+01
  0.206099E+01
  0.223148E+01
  0.236935E+01
  0.248297E+01
  0.260244E+01
  0.272238E+01
  0.286163E+01
  0.305121E+01
  0.327532E+01
  0.341355E+01
  0.348213E+01
  0.361621E+01
  0.381847E+01
  0.404767E+01
  0.420614E+01
  0.432523E+01
  0.447460E+01
  0.466855E+01
  0.490373E+01
  0.509088E+01
  0.525762E+01
  0.541825E+01
  0.560024E+01
  0.579275E+01
  0.598858E+01
  0.616491E+01
  0.632459E+01
  0.648537E+01
  0.666940E+01
  0.686387E+01
  0.706539E+01
  0.728002E+01
  0.752014E+01
  0.775185E+01
  0.792358E+01
  0.806765E+01
  0.821302E+01
  0.841038E+01
  0.861710E+01
  0.882754E+01
  0.903295E+01
  0.923706E+01
  0.944032E+01
  0.964492E+01
  0.985366E+01
  0.100658E+02
  0.102774E+02
  0.104916E+02
  0.107080E+02
  0.109016E+02
  0.110850E+02
  0.112583E+02
  0.114509E+02
  0.116434E+02
  0.118320E+02
  0.120308E+02
  0.122284E+02
  0.124225E+02
  0.126124E+02
  0.127979E+02
  0.129828E+02
  0.131944E+02
  0.134140E+02
  0.136218E+02
  0.138001E+02
  0.139562E+02
  0.141368E+02
  0.143321E+02
  0.145256E+02
  0.147163E+02
  0.148986E+02
  0.150828E+02
  0.152711E+02
  0.154552E+02
  0.156358E+02
  0.158051E+02
  0.159803E+02
  0.161512E+02
  0.163174E+02
  0.164758E+02
  0.166310E+02
  0.167895E+02
  0.169385E+02
  0.170736E+02
  0.172044E+02
  0.173317E+02
  0.174509E+02
  0.175548E+02
  0.176494E+02
  0.177292E+02
  0.177941E+02
  0.178399E+02
  0.178666E+02
  0.178706E+02
  0.178501E+02
  0.177877E+02
  0.176932E+02
  0.175550E+02
  0.173640E+02
  0.171177E+02
  0.167910E+02
  0.163918E+02
  0.158807E+02
  0.152501E+02
  0.144767E+02
  0.135151E+02
  0.122866E+02
  0.106154E+02
  0.108238E+02
  0.331026E+00
 -0.285404E+01
  0.136165E+00
 -0.106504E+00
 -0.208100E-01
  0.152019E+00
 -0.188802E+00
 -0.148519E+00
 -0.204925E+00
 -0.485149E+00
 -0.174580E+00
  0.727538E-01
  0.852676E-01
  0.411870E+00
  0.201798E+00
  0.233753E+00
  0.345434E+00
  0.249044E+00
  0.252359E+00
  0.218765E+00
  0.207482E+00
  0.193999E+00
  0.181559E+00
  0.178588E+00
  0.170055E+00
  0.168617E+00
  0.153696E+00
  0.190894E+00
  0.178237E+00
  0.210018E+00
  0.236414E+00
  0.258791E+00
  0.283942E+00
  0.293420E+00
  0.312053E+00
  0.343889E+00
  0.374484E+00
  0.405333E+00
  0.421572E+00
  0.438932E+00
  0.455489E+00
  0.479134E+00
  0.516419E+00
  0.541633E+00
  0.555925E+00
  0.573419E+00
  0.590604E+00
  0.609097E+00
  0.637943E+00
  0.676493E+00
  0.698996E+00
  0.699406E+00
  0.713365E+00
  0.742432E+00
  0.777899E+00
  0.796456E+00
  0.803195E+00
  0.816001E+00
  0.838991E+00
  0.870685E+00
  0.891888E+00
  0.907790E+00
  0.921615E+00
  0.940579E+00
  0.960643E+00
  0.980913E+00
  0.998070E+00
  0.101109E+01
  0.102360E+01
  0.103944E+01
  0.105602E+01
  0.107286E+01
  0.109038E+01
  0.111159E+01
  0.113203E+01
  0.114505E+01
  0.115352E+01
  0.116179E+01
  0.117634E+01
  0.119135E+01
  0.120629E+01
  0.121931E+01
  0.123166E+01
  0.124337E+01
  0.125488E+01
  0.126676E+01
  0.127874E+01
  0.129000E+01
  0.130172E+01
  0.131384E+01
  0.132460E+01
  0.133444E+01
  0.134309E+01
  0.135264E+01
  0.136205E+01
  0.137108E+01
  0.138010E+01
  0.138874E+01
  0.139673E+01
  0.140345E+01
  0.140981E+01
  0.141609E+01
  0.142464E+01
  0.143340E+01
  0.144048E+01
  0.144389E+01
  0.144641E+01
  0.145049E+01
  0.145549E+01
  0.146033E+01
  0.146362E+01
  0.146646E+01
  0.146890E+01
  0.147112E+01
  0.147311E+01
  0.147356E+01
  0.147338E+01
  0.147267E+01
  0.147164E+01
  0.146906E+01
  0.146530E+01
  0.146137E+01
  0.145702E+01
  0.145112E+01
  0.144302E+01
  0.143389E+01
  0.142409E+01
  0.141236E+01
  0.139989E+01
  0.138405E+01
  0.136715E+01
  0.134896E+01
  0.132712E+01
  0.130336E+01
  0.127719E+01
  0.124756E+01
  0.121145E+01
  0.117206E+01
  0.112776E+01
  0.107825E+01
  0.102184E+01
  0.953584E+00
  0.877136E+00
  0.786200E+00
  0.679494E+00
  0.550421E+00
  0.383691E+00
  0.141377E+00
 -0.266754E+00
 -0.945841E+00
 -0.212961E+00
  0.475800E+01
  0.118385E+01
  0.193187E+01
  0.223133E+01
  0.245192E+01
  0.308749E+01
  0.325994E+01
  0.349045E+01
  0.360821E+01
  0.343326E+01
  0.307352E+01
  0.267940E+01
  0.229588E+01
  0.190393E+01
  0.162173E+01
  0.130835E+01
  0.114089E+01
  0.975161E+00
  0.859855E+00
  0.785059E+00
  0.754045E+00
  0.655609E+00
  0.652695E+00
  0.619646E+00
  0.616184E+00
  0.552578E+00
  0.729595E+00
  0.672341E+00
  0.767134E+00
  0.869385E+00
  0.955950E+00
  0.105605E+01
  0.112456E+01
  0.121856E+01
  0.134530E+01
  0.148252E+01
  0.161351E+01
  0.171180E+01
  0.181372E+01
  0.191905E+01
  0.204523E+01
  0.221554E+01
  0.235322E+01
  0.246667E+01
  0.258599E+01
  0.270577E+01
  0.284488E+01
  0.303432E+01
  0.325825E+01
  0.339629E+01
  0.346467E+01
  0.359855E+01
  0.380061E+01
  0.402961E+01
  0.418789E+01
  0.430679E+01
  0.445598E+01
  0.464976E+01
  0.488476E+01
  0.507172E+01
  0.523824E+01
  0.539865E+01
  0.558041E+01
  0.577268E+01
  0.596826E+01
  0.614434E+01
  0.630377E+01
  0.646430E+01
  0.664810E+01
  0.684234E+01
  0.704364E+01
  0.725805E+01
  0.749793E+01
  0.772939E+01
  0.790085E+01
  0.804463E+01
  0.818972E+01
  0.838681E+01
  0.859326E+01
  0.880345E+01
  0.900863E+01
  0.921252E+01
  0.941557E+01
  0.961996E+01
  0.982850E+01
  0.100405E+02
  0.102518E+02
  0.104657E+02
  0.106819E+02
  0.108752E+02
  0.110583E+02
  0.112313E+02
  0.114236E+02
  0.116158E+02
  0.118041E+02
  0.120025E+02
  0.121998E+02
  0.123936E+02
  0.125832E+02
  0.127684E+02
  0.129531E+02
  0.131644E+02
  0.133837E+02
  0.135912E+02
  0.137693E+02
  0.139251E+02
  0.141053E+02
  0.143003E+02
  0.144935E+02
  0.146840E+02
  0.148660E+02
  0.150499E+02
  0.152380E+02
  0.154218E+02
  0.156022E+02
  0.157712E+02
  0.159462E+02
  0.161168E+02
  0.162828E+02
  0.164410E+02
  0.165960E+02
  0.167543E+02
  0.169031E+02
  0.170380E+02
  0.171686E+02
  0.172957E+02
  0.174147E+02
  0.175185E+02
  0.176130E+02
  0.176927E+02
  0.177575E+02
  0.178033E+02
  0.178300E+02
  0.178340E+02
  0.178135E+02
  0.177512E+02
  0.176568E+02
  0.175187E+02
  0.173278E+02
  0.170818E+02
  0.167554E+02
  0.163564E+02
  0.158456E+02
  0.152154E+02
  0.144426E+02
  0.134814E+02
  0.122536E+02
  0.105857E+02
  0.107998E+02
  0.262700E+00
  0.341232E-02
 -0.788161E-02
 -0.858596E-02
 -0.929987E-02
 -0.986047E-02
 -0.101231E-01
 -0.104201E-01
 -0.106033E-01
 -0.108991E-01
 -0.116245E-01
 -0.125105E-01
 -0.131563E-01
 -0.133648E-01
 -0.155743E-01
 -0.166518E-01
 -0.178391E-01
 -0.191790E-01
 -0.205093E-01
 -0.217890E-01
 -0.229216E-01
 -0.240232E-01
 -0.249516E-01
 -0.258438E-01
 -0.268139E-01
 -0.277616E-01
 -0.285862E-01
 -0.303205E-01
 -0.322256E-01
 -0.336875E-01
 -0.352416E-01
 -0.368784E-01
 -0.386118E-01
 -0.403601E-01
 -0.420684E-01
 -0.438467E-01
 -0.455931E-01
 -0.473615E-01
 -0.491555E-01
 -0.509171E-01
 -0.527401E-01
 -0.545203E-01
 -0.563775E-01
 -0.582123E-01
 -0.601229E-01
 -0.620230E-01
 -0.639730E-01
 -0.659571E-01
 -0.679468E-01
 -0.700304E-01
 -0.720759E-01
 -0.742403E-01
 -0.763900E-01
 -0.785724E-01
 -0.808252E-01
 -0.830539E-01
 -0.853813E-01
 -0.877164E-01
 -0.900536E-01
 -0.924964E-01
 -0.949223E-01
 -0.973860E-01
 -0.999259E-01
 -0.102453E+00
 -0.105044E+00
 -0.107689E+00
 -0.110338E+00
 -0.113062E+00
 -0.115828E+00
 -0.118604E+00
 -0.121453E+00
 -0.124341E+00
 -0.127246E+00
 -0.130217E+00
 -0.133224E+00
 -0.136256E+00
 -0.139344E+00
 -0.142465E+00
 -0.145623E+00
 -0.148823E+00
 -0.152053E+00
 -0.155334E+00
 -0.158645E+00
 -0.161985E+00
 -0.165392E+00
 -0.168824E+00
 -0.172284E+00
 -0.175828E+00
 -0.179395E+00
 -0.182987E+00
 -0.186673E+00
 -0.190382E+00
 -0.194107E+00
 -0.197939E+00
 -0.201793E+00
 -0.205649E+00
 -0.209625E+00
 -0.213611E+00
 -0.217585E+00
 -0.221701E+00
 -0.225806E+00
 -0.229908E+00
 -0.234168E+00
 -0.238390E+00
 -0.242654E+00
 -0.247050E+00
 -0.251373E+00
 -0.255816E+00
 -0.260308E+00
 -0.264728E+00
 -0.269362E+00
 -0.273903E+00
 -0.278521E+00
 -0.283222E+00
 -0.287825E+00
 -0.292666E+00
 -0.297357E+00
 -0.302231E+00
 -0.307060E+00
 -0.311974E+00
 -0.316931E+00
 -0.321905E+00
 -0.326962E+00
 -0.332014E+00
 -0.337133E+00
 -0.342288E+00
 -0.347432E+00
 -0.352719E+00
 -0.357846E+00
 -0.363196E+00
 -0.368464E+00
 -0.373686E+00
 -0.379072E+00
 -0.384429E+00
 -0.389723E+00
 -0.395048E+00
 -0.400433E+00
 -0.405806E+00
 -0.411126E+00
 -0.416378E+00
 -0.421607E+00
 -0.426782E+00
 -0.431725E+00
 -0.436547E+00
 -0.440952E+00
 -0.444710E+00
 -0.447450E+00
 -0.451063E+00
 -0.475172E+00
 -0.529906E+00
 -0.752998E+00
 -0.104397E-02
  0.127449E-01
  0.149979E-01
  0.167629E-01
  0.179814E-01
  0.188856E-01
  0.200452E-01
  0.213159E-01
  0.226867E-01
  0.237178E-01
  0.234970E-01
  0.214428E-01
  0.193501E-01
  0.174662E-01
  0.155746E-01
  0.142306E-01
  0.134032E-01
  0.129765E-01
  0.128458E-01
  0.128785E-01
  0.129392E-01
  0.130031E-01
  0.129972E-01
  0.130151E-01
  0.130523E-01
  0.129949E-01
  0.131507E-01
  0.133478E-01
  0.134092E-01