
FAST Summary File

Predictions were generated on 26-Jul-2021 at 22:00:34 using OpenFAST, compiled as a 64-bit application using double precision at commit v2.5.0-1-g38dae985-dirty
  compiled with
    NWTC Subroutine Library
    ElastoDyn
    BeamDyn (unknown version, unknown date) [not called]
    InflowWind
    AeroDyn14 (unknown version, unknown date) [not called]
    AeroDyn
    ServoDyn
    HydroDyn (unknown version, unknown date) [not called]
    SubDyn (unknown version, unknown date) [not called]
    ExtPtfm_MCKF (unknown version, unknown date) [not called]
    MAP (unknown version, unknown date) [not called]
    FEAMooring (unknown version, unknown date) [not called]
    MoorDyn (unknown version, unknown date) [not called]
    OrcaFlexInterface (unknown version, unknown date) [not called]
    IceFloe (unknown version, unknown date) [not called]
    IceDyn (unknown version, unknown date) [not called]


Modeling a land-based turbine
Description from the FAST input file: 
  LIFES50+      NAUTILUS      - Semi-Sub Gulf of Maine Public Design with DTU 10MW Reference Wind Turbine, Michael Borg (borg@dtu.dk), Antonio Pegalajar-Jurado (ampj@dtu.dk) and Freddy Madsen (fjma@dtu.dk), DTU Wind Energy, January 2018

Interpolation order for input/output time histories: 2 (quadratic)
Number of correction iterations:  1


   Requested Time Steps  
  -------------------------------------------------
  Component          Time Step (s)    Subcycles (-)
  -----------------  ---------------  -------------
  FAST (glue code)    2.5000E-02
  InflowWind          2.5000E-02             1
  ElastoDyn           2.5000E-02             1
  AeroDyn             2.5000E-02             1
  ServoDyn            2.5000E-02             1
  FAST output files   5.0000E-02             2^-1


   Requested Channels in FAST Output File(s)  
  --------------------------------------------
  Number  Name                  Units                 Generated by
  ------  --------------------  --------------------  ------------
       1  Time                  (s)                   OpenFAST
       2  Wind1VelX             (m/s)                 InflowWind
       3  Wind1VelY             (m/s)                 InflowWind
       4  Wind1VelZ             (m/s)                 InflowWind
       5  TipDxc1               (m)                   ElastoDyn
       6  TipDyc1               (m)                   ElastoDyn
       7  TipDxc2               (m)                   ElastoDyn
       8  TipDyc2               (m)                   ElastoDyn
       9  TipDxc3               (m)                   ElastoDyn
      10  TipDyc3               (m)                   ElastoDyn
      11  BldPitch1             (deg)                 ElastoDyn
      12  BldPitch2             (deg)                 ElastoDyn
      13  BldPitch3             (deg)                 ElastoDyn
      14  PtfmSurge             (m)                   ElastoDyn
      15  PtfmSway              (m)                   ElastoDyn
      16  PtfmHeave             (m)                   ElastoDyn
      17  PtfmRoll              (deg)                 ElastoDyn
      18  PtfmPitch             (deg)                 ElastoDyn
      19  PtfmYaw               (deg)                 ElastoDyn
      20  Azimuth               (deg)                 ElastoDyn
      21  rotspeed              (rpm)                 ElastoDyn
      22  RotAccel              (deg/s^2)             ElastoDyn
      23  LSSGagP               (deg)                 ElastoDyn
      24  LSSGagV               (rpm)                 ElastoDyn
      25  LSSGagA               (deg/s^2)             ElastoDyn
      26  GenSpeed              (rpm)                 ElastoDyn
      27  GenAccel              (deg/s^2)             ElastoDyn
      28  YawPos                (deg)                 ElastoDyn
      29  YawRate               (deg/s)               ElastoDyn
      30  YawAccel              (deg/s^2)             ElastoDyn
      31  YawBrTDxp             (m)                   ElastoDyn
      32  YawBrTDyp             (m)                   ElastoDyn
      33  YawBrTDzp             (m)                   ElastoDyn
      34  YawBrTDxt             (m)                   ElastoDyn
      35  YawBrTDyt             (m)                   ElastoDyn
      36  YawBrTDzt             (m)                   ElastoDyn
      37  YawBrTAxp             (m/s^2)               ElastoDyn
      38  YawBrTAyp             (m/s^2)               ElastoDyn
      39  YawBrTAzp             (m/s^2)               ElastoDyn
      40  RootFxc1              (kN)                  ElastoDyn
      41  RootFyc1              (kN)                  ElastoDyn
      42  RootFzc1              (kN)                  ElastoDyn
      43  RootFxb1              (kN)                  ElastoDyn
      44  RootFyb1              (kN)                  ElastoDyn
      45  RootMxc1              (kN-m)                ElastoDyn
      46  RootMyc1              (kN-m)                ElastoDyn
      47  RootMzc1              (kN-m)                ElastoDyn
      48  RootMxb1              (kN-m)                ElastoDyn
      49  RootMyb1              (kN-m)                ElastoDyn
      50  RootFxc2              (kN)                  ElastoDyn
      51  RootFyc2              (kN)                  ElastoDyn
      52  RootFzc2              (kN)                  ElastoDyn
      53  RootFxb2              (kN)                  ElastoDyn
      54  RootFyb2              (kN)                  ElastoDyn
      55  RootMxc2              (kN-m)                ElastoDyn
      56  RootMyc2              (kN-m)                ElastoDyn
      57  RootMzc2              (kN-m)                ElastoDyn
      58  RootMxb2              (kN-m)                ElastoDyn
      59  RootMyb2              (kN-m)                ElastoDyn
      60  RootFxc3              (kN)                  ElastoDyn
      61  RootFyc3              (kN)                  ElastoDyn
      62  RootFzc3              (kN)                  ElastoDyn
      63  RootFxb3              (kN)                  ElastoDyn
      64  RootFyb3              (kN)                  ElastoDyn
      65  RootMxc3              (kN-m)                ElastoDyn
      66  RootMyc3              (kN-m)                ElastoDyn
      67  RootMzc3              (kN-m)                ElastoDyn
      68  RootMxb3              (kN-m)                ElastoDyn
      69  RootMyb3              (kN-m)                ElastoDyn
      70  RotThrust             (kN)                  ElastoDyn
      71  RotTorq               (kN-m)                ElastoDyn
      72  RotPwr                (kW)                  ElastoDyn
      73  LSShftFya             (kN)                  ElastoDyn
      74  LSShftFza             (kN)                  ElastoDyn
      75  LSShftFys             (kN)                  ElastoDyn
      76  LSShftFzs             (kN)                  ElastoDyn
      77  LSShftTq              (kN-m)                ElastoDyn
      78  LSSTipMya             (kN-m)                ElastoDyn
      79  LSSTipMza             (kN-m)                ElastoDyn
      80  LSSTipMys             (kN-m)                ElastoDyn
      81  LSSTipMzs             (kN-m)                ElastoDyn
      82  LSSGagMya             (kN-m)                ElastoDyn
      83  LSSGagMza             (kN-m)                ElastoDyn
      84  LSSGagMys             (kN-m)                ElastoDyn
      85  LSSGagMzs             (kN-m)                ElastoDyn
      86  HSShftTq              (kN-m)                ElastoDyn
      87  HSShftPwr             (kW)                  ElastoDyn
      88  HSSBrTq               (kN-m)                ElastoDyn
      89  YawBrFxn              (kN)                  ElastoDyn
      90  YawBrFyn              (kN)                  ElastoDyn
      91  YawBrFzn              (kN)                  ElastoDyn
      92  YawBrFxp              (kN)                  ElastoDyn
      93  YawBrFyp              (kN)                  ElastoDyn
      94  YawBrMxn              (kN-m)                ElastoDyn
      95  YawBrMyn              (kN-m)                ElastoDyn
      96  YawBrMzn              (kN-m)                ElastoDyn
      97  YawBrMxp              (kN-m)                ElastoDyn
      98  YawBrMyp              (kN-m)                ElastoDyn
      99  TwrBsFxt              (kN)                  ElastoDyn
     100  TwrBsFyt              (kN)                  ElastoDyn
     101  TwrBsFzt              (kN)                  ElastoDyn
     102  TwrBsMxt              (kN-m)                ElastoDyn
     103  TwrBsMyt              (kN-m)                ElastoDyn
     104  TwrBsMzt              (kN-m)                ElastoDyn
     105  NcIMUTAxs             (m/s^2)               ElastoDyn
     106  NcIMUTAys             (m/s^2)               ElastoDyn
     107  RtAeroCp              (-)                   AeroDyn
     108  RtAeroCq              (-)                   AeroDyn
     109  RtAeroCt              (-)                   AeroDyn
     110  RtAeroPwr             (W)                   AeroDyn
     111  RtSpeed               (rpm)                 AeroDyn
     112  RtTSR                 (-)                   AeroDyn
     113  GenPwr                (kW)                  ServoDyn
     114  GenTq                 (kN-m)                ServoDyn
